<?xml version="1.0" ?> 
<!-- 
# vtk DataFile Version 3.0
-->
<VTKFile type="UnstructuredGrid" version="0.1" compressor="vtkZLibDataCompressor" byte_order="LittleEndian">
  <UnstructuredGrid>
    <FieldData>
      <DataArray type="Float64" Name="TIME" NumberOfTuples="1" format="ascii">
9.999999999999999e-01 
      </DataArray>
    </FieldData>

    <Piece NumberOfPoints="1294" NumberOfCells="146" >
      <Points>
        <DataArray type="Float64" NumberOfComponents="3" format="ascii">
-5.000000000000000e+00 1.000000000000000e+00 1.000000000000000e-01
-5.000000000000000e+00 1.000000000000000e+00 0.000000000000000e+00
-5.000000000000000e+00 2.000000000000000e+00 0.000000000000000e+00
-5.000000000000000e+00 2.000000000000000e+00 1.000000000000000e-01
-2.500000000000000e+00 1.000000000000000e+00 1.000000000000000e-01
-2.500000000000000e+00 1.000000000000000e+00 3.469446951953614e-18
-2.500000000000000e+00 2.000000000000000e+00 0.000000000000000e+00
-2.500000000000000e+00 2.000000000000000e+00 1.000000000000000e-01
-5.000000000000000e+00 1.000000000000000e+00 0.000000000000000e+00
-5.000000000000000e+00 1.000000000000000e+00 -1.000000000000000e-01
-5.000000000000000e+00 2.000000000000000e+00 -1.000000000000000e-01
-5.000000000000000e+00 2.000000000000000e+00 0.000000000000000e+00
-2.500000000000000e+00 1.000000000000000e+00 3.469446951953614e-18
-2.500000000000000e+00 1.000000000000000e+00 -1.000000000000000e-01
-2.500000000000000e+00 2.000000000000000e+00 -1.000000000000000e-01
-2.500000000000000e+00 2.000000000000000e+00 0.000000000000000e+00
-2.500000000000000e+00 1.000000000000000e+00 1.000000000000000e-01
-2.500000000000000e+00 1.000000000000000e+00 3.469446951953614e-18
-2.500000000000000e+00 2.000000000000000e+00 0.000000000000000e+00
-2.500000000000000e+00 2.000000000000000e+00 1.000000000000000e-01
0.000000000000000e+00 1.000000000000000e+00 1.000000000000000e-01
0.000000000000000e+00 1.000000000000000e+00 0.000000000000000e+00
0.000000000000000e+00 2.000000000000000e+00 0.000000000000000e+00
0.000000000000000e+00 2.000000000000000e+00 1.000000000000000e-01
-2.500000000000000e+00 1.000000000000000e+00 3.469446951953614e-18
-2.500000000000000e+00 1.000000000000000e+00 -1.000000000000000e-01
-2.500000000000000e+00 2.000000000000000e+00 -1.000000000000000e-01
-2.500000000000000e+00 2.000000000000000e+00 0.000000000000000e+00
0.000000000000000e+00 1.000000000000000e+00 0.000000000000000e+00
0.000000000000000e+00 1.000000000000000e+00 -1.000000000000000e-01
0.000000000000000e+00 2.000000000000000e+00 -1.000000000000000e-01
0.000000000000000e+00 2.000000000000000e+00 0.000000000000000e+00
0.000000000000000e+00 1.000000000000000e+00 1.000000000000000e-01
0.000000000000000e+00 1.000000000000000e+00 0.000000000000000e+00
0.000000000000000e+00 2.000000000000000e+00 0.000000000000000e+00
0.000000000000000e+00 2.000000000000000e+00 1.000000000000000e-01
2.500000000000000e+00 1.000000000000000e+00 1.000000000000000e-01
2.500000000000000e+00 1.000000000000000e+00 0.000000000000000e+00
2.500000000000000e+00 2.000000000000000e+00 3.469446951953614e-18
2.500000000000000e+00 2.000000000000000e+00 1.000000000000000e-01
0.000000000000000e+00 1.000000000000000e+00 0.000000000000000e+00
0.000000000000000e+00 1.000000000000000e+00 -1.000000000000000e-01
0.000000000000000e+00 2.000000000000000e+00 -1.000000000000000e-01
0.000000000000000e+00 2.000000000000000e+00 0.000000000000000e+00
2.500000000000000e+00 1.000000000000000e+00 0.000000000000000e+00
2.500000000000000e+00 1.000000000000000e+00 -1.000000000000000e-01
2.500000000000000e+00 2.000000000000000e+00 -1.000000000000000e-01
2.500000000000000e+00 2.000000000000000e+00 3.469446951953614e-18
2.500000000000000e+00 1.000000000000000e+00 1.000000000000000e-01
2.500000000000000e+00 1.000000000000000e+00 0.000000000000000e+00
2.500000000000000e+00 2.000000000000000e+00 3.469446951953614e-18
2.500000000000000e+00 2.000000000000000e+00 1.000000000000000e-01
5.000000000000000e+00 1.000000000000000e+00 1.000000000000000e-01
5.000000000000000e+00 1.000000000000000e+00 0.000000000000000e+00
5.000000000000000e+00 2.000000000000000e+00 0.000000000000000e+00
5.000000000000000e+00 2.000000000000000e+00 1.000000000000000e-01
2.500000000000000e+00 1.000000000000000e+00 0.000000000000000e+00
2.500000000000000e+00 1.000000000000000e+00 -1.000000000000000e-01
2.500000000000000e+00 2.000000000000000e+00 -1.000000000000000e-01
2.500000000000000e+00 2.000000000000000e+00 3.469446951953614e-18
5.000000000000000e+00 1.000000000000000e+00 0.000000000000000e+00
5.000000000000000e+00 1.000000000000000e+00 -1.000000000000000e-01
5.000000000000000e+00 2.000000000000000e+00 -1.000000000000000e-01
5.000000000000000e+00 2.000000000000000e+00 0.000000000000000e+00
-5.000000000000000e+00 2.500000000000000e+00 1.000000000000000e-01
-5.000000000000000e+00 2.500000000000000e+00 0.000000000000000e+00
-5.000000000000000e+00 3.500000000000000e+00 0.000000000000000e+00
-5.000000000000000e+00 3.500000000000000e+00 1.000000000000000e-01
-2.500000000000000e+00 2.500000000000000e+00 1.000000000000000e-01
-2.500000000000000e+00 2.500000000000000e+00 3.469446951953614e-18
-2.500000000000000e+00 3.500000000000000e+00 0.000000000000000e+00
-2.500000000000000e+00 3.500000000000000e+00 1.000000000000000e-01
-5.000000000000000e+00 2.500000000000000e+00 5.000000000000000e-02
-5.000000000000000e+00 3.000000000000000e+00 0.000000000000000e+00
-5.000000000000000e+00 3.500000000000000e+00 5.000000000000000e-02
-5.000000000000000e+00 3.000000000000000e+00 1.000000000000000e-01
-2.500000000000000e+00 2.500000000000000e+00 5.000000000000000e-02
-2.500000000000000e+00 3.000000000000000e+00 1.734723475976807e-18
-2.500000000000000e+00 3.500000000000000e+00 5.000000000000000e-02
-2.500000000000000e+00 3.000000000000000e+00 1.000000000000000e-01
-3.750000000000000e+00 2.500000000000000e+00 1.000000000000000e-01
-3.750000000000000e+00 2.500000000000000e+00 1.734723475976807e-18
-3.750000000000000e+00 3.500000000000000e+00 0.000000000000000e+00
-3.750000000000000e+00 3.500000000000000e+00 1.000000000000000e-01
-5.000000000000000e+00 2.500000000000000e+00 0.000000000000000e+00
-5.000000000000000e+00 2.500000000000000e+00 -1.000000000000000e-01
-5.000000000000000e+00 3.500000000000000e+00 -1.000000000000000e-01
-5.000000000000000e+00 3.500000000000000e+00 0.000000000000000e+00
-2.500000000000000e+00 2.500000000000000e+00 3.469446951953614e-18
-2.500000000000000e+00 2.500000000000000e+00 -1.000000000000000e-01
-2.500000000000000e+00 3.500000000000000e+00 -1.000000000000000e-01
-2.500000000000000e+00 3.500000000000000e+00 0.000000000000000e+00
-5.000000000000000e+00 2.500000000000000e+00 -5.000000000000000e-02
-5.000000000000000e+00 3.000000000000000e+00 -1.000000000000000e-01
-5.000000000000000e+00 3.500000000000000e+00 -5.000000000000000e-02
-5.000000000000000e+00 3.000000000000000e+00 0.000000000000000e+00
-2.500000000000000e+00 2.500000000000000e+00 -5.000000000000000e-02
-2.500000000000000e+00 3.000000000000000e+00 -1.000000000000000e-01
-2.500000000000000e+00 3.500000000000000e+00 -5.000000000000000e-02
-2.500000000000000e+00 3.000000000000000e+00 1.734723475976807e-18
-3.750000000000000e+00 2.500000000000000e+00 1.734723475976807e-18
-3.750000000000000e+00 2.500000000000000e+00 -1.000000000000000e-01
-3.750000000000000e+00 3.500000000000000e+00 -1.000000000000000e-01
-3.750000000000000e+00 3.500000000000000e+00 0.000000000000000e+00
-2.500000000000000e+00 2.500000000000000e+00 1.000000000000000e-01
-2.500000000000000e+00 2.500000000000000e+00 3.469446951953614e-18
-2.500000000000000e+00 3.500000000000000e+00 0.000000000000000e+00
-2.500000000000000e+00 3.500000000000000e+00 1.000000000000000e-01
0.000000000000000e+00 2.500000000000000e+00 1.000000000000000e-01
0.000000000000000e+00 2.500000000000000e+00 0.000000000000000e+00
0.000000000000000e+00 3.500000000000000e+00 0.000000000000000e+00
0.000000000000000e+00 3.500000000000000e+00 1.000000000000000e-01
-2.500000000000000e+00 2.500000000000000e+00 5.000000000000000e-02
-2.500000000000000e+00 3.000000000000000e+00 1.734723475976807e-18
-2.500000000000000e+00 3.500000000000000e+00 5.000000000000000e-02
-2.500000000000000e+00 3.000000000000000e+00 1.000000000000000e-01
0.000000000000000e+00 2.500000000000000e+00 5.000000000000000e-02
0.000000000000000e+00 3.000000000000000e+00 0.000000000000000e+00
0.000000000000000e+00 3.500000000000000e+00 5.000000000000000e-02
0.000000000000000e+00 3.000000000000000e+00 1.000000000000000e-01
-1.250000000000000e+00 2.500000000000000e+00 1.000000000000000e-01
-1.250000000000000e+00 2.500000000000000e+00 1.734723475976807e-18
-1.250000000000000e+00 3.500000000000000e+00 0.000000000000000e+00
-1.250000000000000e+00 3.500000000000000e+00 1.000000000000000e-01
-2.500000000000000e+00 2.500000000000000e+00 3.469446951953614e-18
-2.500000000000000e+00 2.500000000000000e+00 -1.000000000000000e-01
-2.500000000000000e+00 3.500000000000000e+00 -1.000000000000000e-01
-2.500000000000000e+00 3.500000000000000e+00 0.000000000000000e+00
0.000000000000000e+00 2.500000000000000e+00 0.000000000000000e+00
0.000000000000000e+00 2.500000000000000e+00 -1.000000000000000e-01
0.000000000000000e+00 3.500000000000000e+00 -1.000000000000000e-01
0.000000000000000e+00 3.500000000000000e+00 0.000000000000000e+00
-2.500000000000000e+00 2.500000000000000e+00 -5.000000000000000e-02
-2.500000000000000e+00 3.000000000000000e+00 -1.000000000000000e-01
-2.500000000000000e+00 3.500000000000000e+00 -5.000000000000000e-02
-2.500000000000000e+00 3.000000000000000e+00 1.734723475976807e-18
0.000000000000000e+00 2.500000000000000e+00 -5.000000000000000e-02
0.000000000000000e+00 3.000000000000000e+00 -1.000000000000000e-01
0.000000000000000e+00 3.500000000000000e+00 -5.000000000000000e-02
0.000000000000000e+00 3.000000000000000e+00 0.000000000000000e+00
-1.250000000000000e+00 2.500000000000000e+00 1.734723475976807e-18
-1.250000000000000e+00 2.500000000000000e+00 -1.000000000000000e-01
[...]
  <PointData>
        <DataArray type="Float64" Name="displacement" NumberOfComponents="3" format="ascii">
0.000000000000000e+00 0.000000000000000e+00 0.000000000000000e+00
0.000000000000000e+00 0.000000000000000e+00 0.000000000000000e+00
0.000000000000000e+00 0.000000000000000e+00 0.000000000000000e+00
0.000000000000000e+00 0.000000000000000e+00 0.000000000000000e+00
-4.878179901857792e-03 5.028830842976824e-16 5.411410373645003e-02
-7.430163801032759e-04 4.462451575088033e-16 5.419186679754201e-02
-7.430163801034317e-04 4.566199075186530e-16 5.419186679754202e-02
-4.878179901857694e-03 6.629983362655472e-16 5.411410373644999e-02
0.000000000000000e+00 0.000000000000000e+00 0.000000000000000e+00
0.000000000000000e+00 0.000000000000000e+00 0.000000000000000e+00
0.000000000000000e+00 0.000000000000000e+00 0.000000000000000e+00
0.000000000000000e+00 0.000000000000000e+00 0.000000000000000e+00
-7.430163801032759e-04 4.462451575088033e-16 5.419186679754201e-02
3.391464208835469e-03 3.696490508455991e-16 5.426963161190729e-02
3.391464208835161e-03 7.042099017850319e-16 5.426963161190728e-02
-7.430163801034317e-04 4.566199075186530e-16 5.419186679754202e-02
-4.878179901857792e-03 5.028830842976824e-16 5.411410373645003e-02
-7.430163801032759e-04 4.462451575088033e-16 5.419186679754201e-02
-7.430163801034317e-04 4.566199075186530e-16 5.419186679754202e-02
-4.878179901857694e-03 6.629983362655472e-16 5.411410373644999e-02
-1.192423320341986e-02 4.010212165869779e-16 1.966526083247825e-01
-4.842202048844977e-03 2.897937554901001e-16 1.969019695211209e-01
-4.842202048845016e-03 4.981205625368060e-16 1.969019695211210e-01
-1.192423320341984e-02 5.937430443021400e-16 1.966526083247826e-01
-7.430163801032759e-04 4.462451575088033e-16 5.419186679754201e-02
3.391464208835469e-03 3.696490508455991e-16 5.426963161190729e-02
3.391464208835161e-03 7.042099017850319e-16 5.426963161190728e-02
-7.430163801034317e-04 4.566199075186530e-16 5.419186679754202e-02
-4.842202048844977e-03 2.897937554901001e-16 1.969019695211209e-01
2.239832852114973e-03 3.508080167461346e-16 1.971513255815290e-01
2.239832852115089e-03 2.593475156752562e-16 1.971513255815291e-01
-4.842202048845016e-03 4.981205625368060e-16 1.969019695211210e-01
-1.192423320341986e-02 4.010212165869779e-16 1.966526083247825e-01
-4.842202048844977e-03 2.897937554901001e-16 1.969019695211209e-01
-4.842202048845016e-03 4.981205625368060e-16 1.969019695211210e-01
-1.192423320341984e-02 5.937430443021400e-16 1.966526083247826e-01
-2.176416164986656e-02 -4.488176801557767e-17 3.981122451274073e-01
-1.291754367691446e-02 2.955637834973369e-16 3.985034604104625e-01
-1.291754367691452e-02 5.971968570597638e-16 3.985034604104651e-01
-2.176416164986718e-02 -1.206998331978759e-16 3.981122451274101e-01
-4.842202048844977e-03 2.897937554901001e-16 1.969019695211209e-01
2.239832852114973e-03 3.508080167461346e-16 1.971513255815290e-01
2.239832852115089e-03 2.593475156752562e-16 1.971513255815291e-01
-4.842202048845016e-03 4.981205625368060e-16 1.969019695211210e-01
-1.291754367691446e-02 2.955637834973369e-16 3.985034604104625e-01
-4.071110809981004e-03 5.240861196345749e-16 3.988946621660074e-01
-4.071110809981004e-03 6.751036835081843e-16 3.988946621660102e-01
-1.291754367691452e-02 5.971968570597638e-16 3.985034604104651e-01
-2.176416164986656e-02 -4.488176801557767e-17 3.981122451274073e-01
-1.291754367691446e-02 2.955637834973369e-16 3.985034604104625e-01
-1.291754367691452e-02 5.971968570597638e-16 3.985034604104651e-01
-2.176416164986718e-02 -1.206998331978759e-16 3.981122451274101e-01
-3.293483893338765e-02 -4.643323714456836e-16 6.290508911422746e-01
-2.350105652184527e-02 3.976436096835943e-17 6.294968624950833e-01
-2.350105652184633e-02 7.030343477949440e-17 6.294968624950882e-01
-3.293483893338749e-02 -7.687240712213672e-16 6.290508911422796e-01
-1.291754367691446e-02 2.955637834973369e-16 3.985034604104625e-01
-4.071110809981004e-03 5.240861196345749e-16 3.988946621660074e-01
-4.071110809981004e-03 6.751036835081843e-16 3.988946621660102e-01
-1.291754367691452e-02 5.971968570597638e-16 3.985034604104651e-01
-2.350105652184527e-02 3.976436096835943e-17 6.294968624950833e-01
-1.406716517631629e-02 4.307408762160076e-16 6.299428422779759e-01
-1.406716517631695e-02 4.520157869539000e-16 6.299428422779808e-01
-2.350105652184633e-02 7.030343477949440e-17 6.294968624950882e-01
0.000000000000000e+00 0.000000000000000e+00 0.000000000000000e+00
0.000000000000000e+00 0.000000000000000e+00 0.000000000000000e+00
0.000000000000000e+00 0.000000000000000e+00 0.000000000000000e+00
0.000000000000000e+00 0.000000000000000e+00 0.000000000000000e+00
-2.065914542533474e-01 -1.124701687263428e-14 7.210600563497631e-01
-1.502443609736071e-01 -7.362149757426269e-15 7.385228168274219e-01
-1.502443609736130e-01 -7.136816167387560e-15 7.385228168274474e-01
-2.065914542533522e-01 -8.310326169499103e-15 7.210600563497890e-01
0.000000000000000e+00 0.000000000000000e+00 0.000000000000000e+00
0.000000000000000e+00 0.000000000000000e+00 0.000000000000000e+00
0.000000000000000e+00 0.000000000000000e+00 0.000000000000000e+00
0.000000000000000e+00 0.000000000000000e+00 0.000000000000000e+00
-1.784128712838644e-01 -9.345415780718256e-15 7.297897619056650e-01
-1.502443609736111e-01 -7.117603326846560e-15 7.385228168274359e-01
-1.784128712838695e-01 -7.980871276388081e-15 7.297897619056906e-01
-2.065914542533513e-01 -8.818983849513332e-15 7.210600563497772e-01
-5.079515023897153e-02 -1.771346342010017e-15 1.906141475488884e-01
-2.069492233033278e-02 -2.714858628919774e-16 1.952329745803064e-01
-2.069492233033637e-02 -6.007539521645547e-17 1.952329745803257e-01
-5.079515023897546e-02 -3.660371906481282e-15 1.906141475489072e-01
0.000000000000000e+00 0.000000000000000e+00 0.000000000000000e+00
0.000000000000000e+00 0.000000000000000e+00 0.000000000000000e+00
0.000000000000000e+00 0.000000000000000e+00 0.000000000000000e+00
0.000000000000000e+00 0.000000000000000e+00 0.000000000000000e+00
-1.502443609736071e-01 -7.362149757426269e-15 7.385228168274219e-01
-9.388848470753593e-02 -4.070040964987866e-15 7.559926739998460e-01
-9.388848470754498e-02 -6.417896142218372e-15 7.559926739998704e-01
-1.502443609736130e-01 -7.136816167387560e-15 7.385228168274474e-01
0.000000000000000e+00 0.000000000000000e+00 0.000000000000000e+00
0.000000000000000e+00 0.000000000000000e+00 0.000000000000000e+00
0.000000000000000e+00 0.000000000000000e+00 0.000000000000000e+00
0.000000000000000e+00 0.000000000000000e+00 0.000000000000000e+00
-1.220713775770711e-01 -6.107199764056249e-15 7.472594557734661e-01
-9.388848470754044e-02 -5.286478438426867e-15 7.559926739998595e-01
-1.220713775770789e-01 -7.282575953547410e-15 7.472594557734907e-01
-1.502443609736111e-01 -7.117603326846560e-15 7.385228168274359e-01
-2.069492233033278e-02 -2.714858628919774e-16 1.952329745803064e-01
9.400669259135047e-03 1.045673661264229e-15 1.998498978751775e-01
9.400669259133349e-03 2.688655780895363e-15 1.998498978751974e-01
-2.069492233033637e-02 -6.007539521645547e-17 1.952329745803257e-01
-2.065914542533474e-01 -1.124701687263428e-14 7.210600563497631e-01
-1.502443609736071e-01 -7.362149757426269e-15 7.385228168274219e-01
-1.502443609736130e-01 -7.136816167387560e-15 7.385228168274474e-01
-2.065914542533522e-01 -8.310326169499103e-15 7.210600563497890e-01
-1.047392038861267e+00 -3.616379176191202e-14 2.506381921008593e+00
-9.613114235053262e-01 -3.472919748927275e-14 2.555568571006981e+00
-9.613114235053285e-01 -3.428563357256112e-14 2.555568571006997e+00
-1.047392038861270e+00 -3.391229630518548e-14 2.506381921008606e+00
-1.784128712838644e-01 -9.345415780718256e-15 7.297897619056650e-01
-1.502443609736111e-01 -7.117603326846560e-15 7.385228168274359e-01
-1.784128712838695e-01 -7.980871276388081e-15 7.297897619056906e-01
-2.065914542533513e-01 -8.818983849513332e-15 7.210600563497772e-01
-1.004348954594350e+00 -3.572836144908845e-14 2.530978228355884e+00
-9.613114235053282e-01 -3.478709621143168e-14 2.555568571006990e+00
-1.004348954594352e+00 -3.388506387688854e-14 2.530978228355899e+00
-1.047392038861269e+00 -3.533212813914006e-14 2.506381921008599e+00
-5.302815052282234e-01 -2.153405681068037e-14 1.523053100023037e+00
-4.569705694297275e-01 -2.071933995562408e-14 1.555026376706998e+00
-4.569705694297262e-01 -2.070135392583506e-14 1.555026376707012e+00
-5.302815052282209e-01 -2.237245812507581e-14 1.523053100023050e+00
-1.502443609736071e-01 -7.362149757426269e-15 7.385228168274219e-01
-9.388848470753593e-02 -4.070040964987866e-15 7.559926739998460e-01
-9.388848470754498e-02 -6.417896142218372e-15 7.559926739998704e-01
-1.502443609736130e-01 -7.136816167387560e-15 7.385228168274474e-01
-9.613114235053262e-01 -3.472919748927275e-14 2.555568571006981e+00
-8.752249845793932e-01 -3.424834291233483e-14 2.604763382712110e+00
-8.752249845793960e-01 -3.407439110135906e-14 2.604763382712127e+00
-9.613114235053285e-01 -3.428563357256112e-14 2.555568571006997e+00
-1.220713775770711e-01 -6.107199764056249e-15 7.472594557734661e-01
-9.388848470754044e-02 -5.286478438426867e-15 7.559926739998595e-01
-1.220713775770789e-01 -7.282575953547410e-15 7.472594557734907e-01
-1.502443609736111e-01 -7.117603326846560e-15 7.385228168274359e-01
-9.182708694029403e-01 -3.473935134553111e-14 2.580163102840756e+00
-8.752249845793953e-01 -3.364062483525675e-14 2.604763382712118e+00
-9.182708694029427e-01 -3.443417736001802e-14 2.580163102840772e+00
-9.613114235053282e-01 -3.478709621143168e-14 2.555568571006990e+00
-4.569705694297275e-01 -2.071933995562408e-14 1.555026376706998e+00
-3.836652063551089e-01 -2.052262437876958e-14 1.586994043243542e+00
-3.836652063551076e-01 -1.883047969009035e-14 1.586994043243556e+00
-4.569705694297262e-01 -2.070135392583506e-14 1.555026376707012e+00
-1.047392038861267e+00 -3.616379176191202e-14 2.506381921008593e+00
-9.613114235053262e-01 -3.472919748927275e-14 2.555568571006981e+00
-9.613114235053285e-01 -3.428563357256112e-14 2.555568571006997e+00
-1.047392038861270e+00 -3.391229630518548e-14 2.506381921008606e+00
-2.592770239620723e+00 -6.714674296313624e-14 4.781137394455684e+00
-2.496299677818446e+00 -6.636801390806269e-14 4.854873038318723e+00
-2.496299677818436e+00 -6.668967693243344e-14 4.854873038318734e+00
-2.592770239620714e+00 -6.396506360603302e-14 4.781137394455697e+00
-1.004348954594350e+00 -3.572836144908845e-14 2.530978228355884e+00
-9.613114235053282e-01 -3.478709621143168e-14 2.555568571006990e+00
-1.004348954594352e+00 -3.388506387688854e-14 2.530978228355899e+00
-1.047392038861269e+00 -3.533212813914006e-14 2.506381921008599e+00
-2.544533732879781e+00 -6.697586118615234e-14 4.818008507420694e+00
-2.496299677818443e+00 -6.650213112176758e-14 4.854873038318728e+00
-2.544533732879771e+00 -6.570943548464841e-14 4.818008507420704e+00
-2.592770239620720e+00 -6.546082139040296e-14 4.781137394455691e+00
-1.744454653317651e+00 -5.117438383469309e-14 3.611684341466197e+00
-1.652222834531763e+00 -5.030417775154305e-14 3.673030347879399e+00
-1.652222834531766e+00 -5.025197943577602e-14 3.673030347879415e+00
-1.744454653317653e+00 -5.097333760234286e-14 3.611684341466213e+00
-9.613114235053262e-01 -3.472919748927275e-14 2.555568571006981e+00
-8.752249845793932e-01 -3.424834291233483e-14 2.604763382712110e+00
-8.752249845793960e-01 -3.407439110135906e-14 2.604763382712127e+00
-9.613114235053285e-01 -3.428563357256112e-14 2.555568571006997e+00
-2.496299677818446e+00 -6.636801390806269e-14 4.854873038318723e+00
-2.399827136148707e+00 -6.592658289296803e-14 4.928613795018759e+00
-2.399827136148697e+00 -6.858799821073741e-14 4.928613795018771e+00
-2.496299677818436e+00 -6.668967693243344e-14 4.854873038318734e+00
-9.182708694029403e-01 -3.473935134553111e-14 2.580163102840756e+00
-8.752249845793953e-01 -3.364062483525675e-14 2.604763382712118e+00
-9.182708694029427e-01 -3.443417736001802e-14 2.580163102840772e+00
-9.613114235053282e-01 -3.478709621143168e-14 2.555568571006990e+00
-2.448064594618118e+00 -6.701925298770797e-14 4.891740271354661e+00
-2.399827136148704e+00 -6.811756118421980e-14 4.928613795018766e+00
-2.448064594618109e+00 -6.743359290613939e-14 4.891740271354672e+00
-2.496299677818443e+00 -6.650213112176758e-14 4.854873038318728e+00
-1.652222834531763e+00 -5.030417775154305e-14 3.673030347879399e+00
-1.559993084453855e+00 -4.902234654757185e-14 3.734372311351815e+00
-1.559993084453858e+00 -4.868902025440720e-14 3.734372311351828e+00
-1.652222834531766e+00 -5.025197943577602e-14 3.673030347879415e+00
-2.592770239620723e+00 -6.714674296313624e-14 4.781137394455684e+00
-2.496299677818446e+00 -6.636801390806269e-14 4.854873038318723e+00
-2.496299677818436e+00 -6.668967693243344e-14 4.854873038318734e+00
-2.592770239620714e+00 -6.396506360603302e-14 4.781137394455697e+00
-4.551340098883249e+00 -1.020271545448211e-13 7.212845208108793e+00
-4.452874970962741e+00 -1.016342304436755e-13 7.295447310200530e+00
-4.452874970962742e+00 -9.937097169961379e-14 7.295447310200544e+00
-4.551340098883250e+00 -1.000070652963806e-13 7.212845208108806e+00
-2.544533732879781e+00 -6.697586118615234e-14 4.818008507420694e+00
-2.496299677818443e+00 -6.650213112176758e-14 4.854873038318728e+00
-2.544533732879771e+00 -6.570943548464841e-14 4.818008507420704e+00
-2.592770239620720e+00 -6.546082139040296e-14 4.781137394455691e+00
-4.502107011605676e+00 -1.015450411272938e-13 7.254149854369574e+00
-4.452874970962743e+00 -1.008161705779264e-13 7.295447310200537e+00
-4.502107011605677e+00 -9.924584403051056e-14 7.254149854369587e+00
-4.551340098883251e+00 -9.965917297249732e-14 7.212845208108802e+00
-3.544505554522691e+00 -8.395076844487640e-14 5.990689871974909e+00
-3.446886560652850e+00 -8.264744587108867e-14 6.068984599897117e+00
-3.446886560652858e+00 -8.366879403014942e-14 6.068984599897132e+00
-3.544505554522698e+00 -8.552455988409518e-14 5.990689871974924e+00
-2.496299677818446e+00 -6.636801390806269e-14 4.854873038318723e+00
-2.399827136148707e+00 -6.592658289296803e-14 4.928613795018759e+00
-2.399827136148697e+00 -6.858799821073741e-14 4.928613795018771e+00
-2.496299677818436e+00 -6.668967693243344e-14 4.854873038318734e+00
-4.452874970962741e+00 -1.016342304436755e-13 7.295447310200530e+00
-4.354409211300132e+00 -9.919983358963046e-14 7.378055215125327e+00
-4.354409211300132e+00 -1.025266814405449e-13 7.378055215125342e+00
-4.452874970962742e+00 -9.937097169961379e-14 7.295447310200544e+00
-2.448064594618118e+00 -6.701925298770797e-14 4.891740271354661e+00
-2.399827136148704e+00 -6.811756118421980e-14 4.928613795018766e+00
-2.448064594618109e+00 -6.743359290613939e-14 4.891740271354672e+00
-2.496299677818443e+00 -6.650213112176758e-14 4.854873038318728e+00
-4.403642665261821e+00 -1.004936347321241e-13 7.336747400105558e+00
-4.354409211300133e+00 -1.014804426305650e-13 7.378055215125335e+00
-4.403642665261822e+00 -1.007194837269277e-13 7.336747400105573e+00
-4.452874970962743e+00 -1.008161705779264e-13 7.295447310200537e+00
-3.446886560652850e+00 -8.264744587108867e-14 6.068984599897117e+00
-3.349268054546213e+00 -8.181990506923791e-14 6.147277261429975e+00
-3.349268054546221e+00 -8.113691622784837e-14 6.147277261429991e+00
-3.446886560652858e+00 -8.366879403014942e-14 6.068984599897132e+00
0.000000000000000e+00 0.000000000000000e+00 0.000000000000000e+00
0.000000000000000e+00 0.000000000000000e+00 0.000000000000000e+00
0.000000000000000e+00 0.000000000000000e+00 0.000000000000000e+00
0.000000000000000e+00 0.000000000000000e+00 0.000000000000000e+00
-2.065980575750380e-01 -1.850632687801252e-15 7.210729357903877e-01
-1.502491931249973e-01 -2.211742003244624e-15 7.385366547511061e-01
-1.502491931249968e-01 -2.284138325001343e-15 7.385366547511042e-01
-2.065980575750364e-01 -2.238171909962854e-15 7.210729357903857e-01
0.000000000000000e+00 0.000000000000000e+00 0.000000000000000e+00
0.000000000000000e+00 0.000000000000000e+00 0.000000000000000e+00
0.000000000000000e+00 0.000000000000000e+00 0.000000000000000e+00
0.000000000000000e+00 0.000000000000000e+00 0.000000000000000e+00
-1.784138336910469e-01 -4.390620647381251e-16 7.298101463704258e-01
-1.502491931249983e-01 1.801522816794458e-16 7.385366547511061e-01
-1.784138336910455e-01 -5.440001941843385e-18 7.298101463704241e-01
-2.065980575750372e-01 -3.701405068806539e-16 7.210729357903871e-01
-5.079664366824595e-02 -8.677060185954095e-16 1.906164441855231e-01
-2.069600490007348e-02 -1.130776673201395e-16 1.952355430206316e-01
-2.069600490007279e-02 4.375731440933782e-16 1.952355430206311e-01
-5.079664366824579e-02 -1.575635149203328e-16 1.906164441855223e-01
-5.079664366824688e-02 -5.686138298609334e-16 1.906164441855250e-01
-2.069600490007377e-02 -1.462566352550671e-15 1.952355430206334e-01
-3.574465133438189e-02 -7.471244366144740e-16 1.929217456032986e-01
-3.574465133438115e-02 -7.188451276319186e-16 1.929217456032981e-01
0.000000000000000e+00 0.000000000000000e+00 0.000000000000000e+00
-1.784138336910460e-01 -1.407716137198154e-15 7.298101463704249e-01
-3.574465133438254e-02 2.161446544868836e-16 1.929217456033007e-01
0.000000000000000e+00 0.000000000000000e+00 0.000000000000000e+00
0.000000000000000e+00 0.000000000000000e+00 0.000000000000000e+00
0.000000000000000e+00 0.000000000000000e+00 0.000000000000000e+00
0.000000000000000e+00 0.000000000000000e+00 0.000000000000000e+00
-1.502491931249973e-01 -2.211742003244624e-15 7.385366547511061e-01
-9.389269078475738e-02 -2.357560043695344e-15 7.560073954318071e-01
-9.389269078475578e-02 -2.248050102121825e-15 7.560073954318047e-01
-1.502491931249968e-01 -2.284138325001343e-15 7.385366547511042e-01
0.000000000000000e+00 0.000000000000000e+00 0.000000000000000e+00
0.000000000000000e+00 0.000000000000000e+00 0.000000000000000e+00
0.000000000000000e+00 0.000000000000000e+00 0.000000000000000e+00
0.000000000000000e+00 0.000000000000000e+00 0.000000000000000e+00
-1.220829122427947e-01 -1.087512330543246e-15 7.472649486105770e-01
-9.389269078475872e-02 -1.549509018356765e-15 7.560073954318068e-01
-1.220829122427937e-01 -1.284357199774161e-15 7.472649486105750e-01
-1.502491931249983e-01 1.801522816794458e-16 7.385366547511061e-01
-2.069600490007348e-02 -1.130776673201395e-16 1.952355430206316e-01
9.400149376817256e-03 -4.808217562373505e-16 1.998523996137377e-01
9.400149376818340e-03 -1.104103963247560e-15 1.998523996137374e-01
-2.069600490007279e-02 4.375731440933782e-16 1.952355430206311e-01
-2.069600490007377e-02 -1.462566352550671e-15 1.952355430206334e-01
9.400149376816880e-03 -1.514901088579245e-15 1.998523996137396e-01
-5.648421154233677e-03 -3.894461454505478e-16 1.975487710415406e-01
-5.648421154232732e-03 2.280241664963883e-16 1.975487710415403e-01
0.000000000000000e+00 0.000000000000000e+00 0.000000000000000e+00
-1.220829122427946e-01 -1.065005099835971e-15 7.472649486105762e-01
-5.648421154234344e-03 -4.044631722611676e-16 1.975487710415426e-01
-2.065980575750380e-01 -1.850632687801252e-15 7.210729357903877e-01
-1.502491931249973e-01 -2.211742003244624e-15 7.385366547511061e-01
-1.502491931249968e-01 -2.284138325001343e-15 7.385366547511042e-01
-2.065980575750364e-01 -2.238171909962854e-15 7.210729357903857e-01
-1.047415526611619e+00 -1.179599667914745e-15 2.506410351411178e+00
-9.613337247825615e-01 -1.797990033602567e-15 2.555598501077772e+00
-9.613337247825638e-01 -2.324084891615902e-15 2.555598501077773e+00
-1.047415526611621e+00 -3.871686439407770e-15 2.506410351411180e+00
-1.784138336910469e-01 -4.390620647381251e-16 7.298101463704258e-01
-1.502491931249983e-01 1.801522816794458e-16 7.385366547511061e-01
-1.784138336910455e-01 -5.440001941843385e-18 7.298101463704241e-01
-2.065980575750372e-01 -3.701405068806539e-16 7.210729357903871e-01
-1.004365999483566e+00 -8.054279771713386e-16 2.531016969908574e+00
-9.613337247825623e-01 -1.751597389937760e-15 2.555598501077772e+00
-1.004365999483568e+00 -1.423162057120912e-15 2.531016969908576e+00
-1.047415526611619e+00 -2.399504158736510e-15 2.506410351411178e+00