<VTKFile type="UnstructuredGrid" version="1.0" byte_order="LittleEndian" header_type="UInt64">
  <UnstructuredGrid>
    <FieldData>
      <DataArray type="Float64" Name="TIME" NumberOfTuples="1" format="ascii" RangeMin="0.9999999999999999" RangeMax="0.9999999999999999">
        0.9999999999999999
      </DataArray>
    </FieldData>
    <Piece NumberOfPoints="1294" NumberOfCells="146">
      <PointData>
        <DataArray type="Float64" Name="displacement" NumberOfComponents="3" format="ascii" RangeMin="0" RangeMax="8.703725458768785">
          0 0 0 0 0 0
          0 0 0 0 0 0
          -0.004878179901857792 5.028830842976824e-16 0.05411410373645003 -0.0007430163801032759 4.462451575088033e-16 0.05419186679754201
          -0.0007430163801034317 4.56619907518653e-16 0.05419186679754202 -0.004878179901857694 6.629983362655472e-16 0.05411410373644999
          0 0 0 0 0 0
          0 0 0 0 0 0
          -0.0007430163801032759 4.462451575088033e-16 0.05419186679754201 0.003391464208835469 3.696490508455991e-16 0.05426963161190729
          0.003391464208835161 7.042099017850319e-16 0.05426963161190728 -0.0007430163801034317 4.56619907518653e-16 0.05419186679754202
          -0.004878179901857792 5.028830842976824e-16 0.05411410373645003 -0.0007430163801032759 4.462451575088033e-16 0.05419186679754201
          -0.0007430163801034317 4.56619907518653e-16 0.05419186679754202 -0.004878179901857694 6.629983362655472e-16 0.05411410373644999
          -0.01192423320341986 4.010212165869779e-16 0.1966526083247825 -0.004842202048844977 2.897937554901001e-16 0.1969019695211209
          -0.004842202048845016 4.98120562536806e-16 0.196901969521121 -0.01192423320341984 5.9374304430214e-16 0.1966526083247826
          -0.0007430163801032759 4.462451575088033e-16 0.05419186679754201 0.003391464208835469 3.696490508455991e-16 0.05426963161190729
          0.003391464208835161 7.042099017850319e-16 0.05426963161190728 -0.0007430163801034317 4.56619907518653e-16 0.05419186679754202
          -0.004842202048844977 2.897937554901001e-16 0.1969019695211209 0.002239832852114973 3.508080167461346e-16 0.197151325581529
          0.002239832852115089 2.593475156752562e-16 0.1971513255815291 -0.004842202048845016 4.98120562536806e-16 0.196901969521121
          -0.01192423320341986 4.010212165869779e-16 0.1966526083247825 -0.004842202048844977 2.897937554901001e-16 0.1969019695211209
          -0.004842202048845016 4.98120562536806e-16 0.196901969521121 -0.01192423320341984 5.9374304430214e-16 0.1966526083247826
          -0.02176416164986656 -4.488176801557767e-17 0.3981122451274073 -0.01291754367691446 2.955637834973369e-16 0.3985034604104625
          -0.01291754367691452 5.971968570597638e-16 0.3985034604104651 -0.02176416164986718 -1.206998331978759e-16 0.3981122451274101
          -0.004842202048844977 2.897937554901001e-16 0.1969019695211209 0.002239832852114973 3.508080167461346e-16 0.197151325581529
          0.002239832852115089 2.593475156752562e-16 0.1971513255815291 -0.004842202048845016 4.98120562536806e-16 0.196901969521121
          -0.01291754367691446 2.955637834973369e-16 0.3985034604104625 -0.004071110809981004 5.240861196345749e-16 0.3988946621660074
          -0.004071110809981004 6.751036835081843e-16 0.3988946621660102 -0.01291754367691452 5.971968570597638e-16 0.3985034604104651
          -0.02176416164986656 -4.488176801557767e-17 0.3981122451274073 -0.01291754367691446 2.955637834973369e-16 0.3985034604104625
          -0.01291754367691452 5.971968570597638e-16 0.3985034604104651 -0.02176416164986718 -1.206998331978759e-16 0.3981122451274101
          -0.03293483893338765 -4.643323714456836e-16 0.6290508911422746 -0.02350105652184527 3.976436096835943e-17 0.6294968624950833
          -0.02350105652184633 7.03034347794944e-17 0.6294968624950882 -0.03293483893338749 -7.687240712213672e-16 0.6290508911422796
          -0.01291754367691446 2.955637834973369e-16 0.3985034604104625 -0.004071110809981004 5.240861196345749e-16 0.3988946621660074
          -0.004071110809981004 6.751036835081843e-16 0.3988946621660102 -0.01291754367691452 5.971968570597638e-16 0.3985034604104651
          -0.02350105652184527 3.976436096835943e-17 0.6294968624950833 -0.01406716517631629 4.307408762160076e-16 0.6299428422779759
          -0.01406716517631695 4.520157869539e-16 0.6299428422779808 -0.02350105652184633 7.03034347794944e-17 0.6294968624950882
          0 0 0 0 0 0
          0 0 0 0 0 0
          -0.2065914542533474 -1.124701687263428e-14 0.7210600563497631 -0.1502443609736071 -7.36214975742627e-15 0.7385228168274219
          -0.150244360973613 -7.13681616738756e-15 0.7385228168274474 -0.2065914542533522 -8.310326169499103e-15 0.721060056349789
          0 0 0 0 0 0
          0 0 0 0 0 0
          -0.1784128712838644 -9.345415780718256e-15 0.729789761905665 -0.1502443609736111 -7.11760332684656e-15 0.7385228168274359
          -0.1784128712838695 -7.980871276388081e-15 0.7297897619056906 -0.2065914542533513 -8.818983849513332e-15 0.7210600563497772
          -0.05079515023897153 -1.771346342010017e-15 0.1906141475488884 -0.02069492233033278 -2.714858628919774e-16 0.1952329745803064
          -0.02069492233033637 -6.007539521645547e-17 0.1952329745803257 -0.05079515023897546 -3.660371906481282e-15 0.1906141475489072
          0 0 0 0 0 0
          0 0 0 0 0 0
          -0.1502443609736071 -7.36214975742627e-15 0.7385228168274219 -0.09388848470753593 -4.070040964987866e-15 0.755992673999846
          -0.09388848470754498 -6.417896142218372e-15 0.7559926739998704 -0.150244360973613 -7.13681616738756e-15 0.7385228168274474
          0 0 0 0 0 0
          0 0 0 0 0 0
          -0.1220713775770711 -6.107199764056249e-15 0.7472594557734661 -0.09388848470754044 -5.286478438426867e-15 0.7559926739998595
          -0.1220713775770789 -7.28257595354741e-15 0.7472594557734907 -0.1502443609736111 -7.11760332684656e-15 0.7385228168274359
          -0.02069492233033278 -2.714858628919774e-16 0.1952329745803064 0.009400669259135047 1.045673661264229e-15 0.1998498978751775
          0.009400669259133349 2.688655780895363e-15 0.1998498978751974 -0.02069492233033637 -6.007539521645547e-17 0.1952329745803257
          -0.2065914542533474 -1.124701687263428e-14 0.7210600563497631 -0.1502443609736071 -7.36214975742627e-15 0.7385228168274219
          -0.150244360973613 -7.13681616738756e-15 0.7385228168274474 -0.2065914542533522 -8.310326169499103e-15 0.721060056349789
          -1.047392038861267 -3.616379176191202e-14 2.506381921008593 -0.9613114235053262 -3.472919748927275e-14 2.555568571006981
          -0.9613114235053285 -3.428563357256112e-14 2.555568571006997 -1.04739203886127 -3.391229630518548e-14 2.506381921008606
          -0.1784128712838644 -9.345415780718256e-15 0.729789761905665 -0.1502443609736111 -7.11760332684656e-15 0.7385228168274359
          -0.1784128712838695 -7.980871276388081e-15 0.7297897619056906 -0.2065914542533513 -8.818983849513332e-15 0.7210600563497772
          -1.00434895459435 -3.572836144908845e-14 2.530978228355884 -0.9613114235053282 -3.478709621143168e-14 2.55556857100699
          -1.004348954594352 -3.388506387688854e-14 2.530978228355899 -1.047392038861269 -3.533212813914006e-14 2.506381921008599
          -0.5302815052282234 -2.153405681068037e-14 1.523053100023037 -0.4569705694297275 -2.071933995562408e-14 1.555026376706998
          -0.4569705694297262 -2.070135392583506e-14 1.555026376707012 -0.5302815052282209 -2.237245812507581e-14 1.52305310002305
          -0.1502443609736071 -7.36214975742627e-15 0.7385228168274219 -0.09388848470753593 -4.070040964987866e-15 0.755992673999846
          -0.09388848470754498 -6.417896142218372e-15 0.7559926739998704 -0.150244360973613 -7.13681616738756e-15 0.7385228168274474
          -0.9613114235053262 -3.472919748927275e-14 2.555568571006981 -0.8752249845793932 -3.424834291233483e-14 2.60476338271211
          -0.875224984579396 -3.407439110135906e-14 2.604763382712127 -0.9613114235053285 -3.428563357256112e-14 2.555568571006997
          -0.1220713775770711 -6.107199764056249e-15 0.7472594557734661 -0.09388848470754044 -5.286478438426867e-15 0.7559926739998595
          -0.1220713775770789 -7.28257595354741e-15 0.7472594557734907 -0.1502443609736111 -7.11760332684656e-15 0.7385228168274359
          -0.9182708694029403 -3.473935134553111e-14 2.580163102840756 -0.8752249845793953 -3.364062483525675e-14 2.604763382712118
          -0.9182708694029427 -3.443417736001802e-14 2.580163102840772 -0.9613114235053282 -3.478709621143168e-14 2.55556857100699
          -0.4569705694297275 -2.071933995562408e-14 1.555026376706998 -0.3836652063551089 -2.052262437876958e-14 1.586994043243542
          -0.3836652063551076 -1.883047969009035e-14 1.586994043243556 -0.4569705694297262 -2.070135392583506e-14 1.555026376707012
          -1.047392038861267 -3.616379176191202e-14 2.506381921008593 -0.9613114235053262 -3.472919748927275e-14 2.555568571006981
          -0.9613114235053285 -3.428563357256112e-14 2.555568571006997 -1.04739203886127 -3.391229630518548e-14 2.506381921008606
          -2.592770239620723 -6.714674296313624e-14 4.781137394455684 -2.496299677818446 -6.63680139080627e-14 4.854873038318723
          -2.496299677818436 -6.668967693243344e-14 4.854873038318734 -2.592770239620714 -6.396506360603302e-14 4.781137394455697
          -1.00434895459435 -3.572836144908845e-14 2.530978228355884 -0.9613114235053282 -3.478709621143168e-14 2.55556857100699
          -1.004348954594352 -3.388506387688854e-14 2.530978228355899 -1.047392038861269 -3.533212813914006e-14 2.506381921008599
          -2.544533732879781 -6.697586118615234e-14 4.818008507420694 -2.496299677818443 -6.650213112176758e-14 4.854873038318728
          -2.544533732879771 -6.570943548464841e-14 4.818008507420704 -2.59277023962072 -6.546082139040296e-14 4.781137394455691
          -1.744454653317651 -5.117438383469309e-14 3.611684341466197 -1.652222834531763 -5.030417775154305e-14 3.673030347879399
          -1.652222834531766 -5.025197943577602e-14 3.673030347879415 -1.744454653317653 -5.097333760234286e-14 3.611684341466213
          -0.9613114235053262 -3.472919748927275e-14 2.555568571006981 -0.8752249845793932 -3.424834291233483e-14 2.60476338271211
          -0.875224984579396 -3.407439110135906e-14 2.604763382712127 -0.9613114235053285 -3.428563357256112e-14 2.555568571006997
          -2.496299677818446 -6.63680139080627e-14 4.854873038318723 -2.399827136148707 -6.592658289296803e-14 4.928613795018759
          -2.399827136148697 -6.858799821073741e-14 4.928613795018771 -2.496299677818436 -6.668967693243344e-14 4.854873038318734
          -0.9182708694029403 -3.473935134553111e-14 2.580163102840756 -0.8752249845793953 -3.364062483525675e-14 2.604763382712118
          -0.9182708694029427 -3.443417736001802e-14 2.580163102840772 -0.9613114235053282 -3.478709621143168e-14 2.55556857100699
          -2.448064594618118 -6.701925298770797e-14 4.891740271354661 -2.399827136148704 -6.81175611842198e-14 4.928613795018766
          -2.448064594618109 -6.743359290613939e-14 4.891740271354672 -2.496299677818443 -6.650213112176758e-14 4.854873038318728
          -1.652222834531763 -5.030417775154305e-14 3.673030347879399 -1.559993084453855 -4.902234654757185e-14 3.734372311351815
          -1.559993084453858 -4.86890202544072e-14 3.734372311351828 -1.652222834531766 -5.025197943577602e-14 3.673030347879415
          -2.592770239620723 -6.714674296313624e-14 4.781137394455684 -2.496299677818446 -6.63680139080627e-14 4.854873038318723
          -2.496299677818436 -6.668967693243344e-14 4.854873038318734 -2.592770239620714 -6.396506360603302e-14 4.781137394455697
          -4.551340098883249 -1.020271545448211e-13 7.212845208108793 -4.452874970962741 -1.016342304436755e-13 7.29544731020053
          -4.452874970962742 -9.93709716996138e-14 7.295447310200544 -4.55134009888325 -1.000070652963806e-13 7.212845208108806
          -2.544533732879781 -6.697586118615234e-14 4.818008507420694 -2.496299677818443 -6.650213112176758e-14 4.854873038318728
          -2.544533732879771 -6.570943548464841e-14 4.818008507420704 -2.59277023962072 -6.546082139040296e-14 4.781137394455691
          -4.502107011605676 -1.015450411272938e-13 7.254149854369574 -4.452874970962743 -1.008161705779264e-13 7.295447310200537
          -4.502107011605677 -9.924584403051056e-14 7.254149854369587 -4.551340098883251 -9.965917297249732e-14 7.212845208108802
          -3.544505554522691 -8.39507684448764e-14 5.990689871974909 -3.44688656065285 -8.264744587108867e-14 6.068984599897117
          -3.446886560652858 -8.366879403014942e-14 6.068984599897132 -3.544505554522698 -8.552455988409518e-14 5.990689871974924
          -2.496299677818446 -6.63680139080627e-14 4.854873038318723 -2.399827136148707 -6.592658289296803e-14 4.928613795018759
          -2.399827136148697 -6.858799821073741e-14 4.928613795018771 -2.496299677818436 -6.668967693243344e-14 4.854873038318734
          -4.452874970962741 -1.016342304436755e-13 7.29544731020053 -4.354409211300132 -9.919983358963046e-14 7.378055215125327
          -4.354409211300132 -1.025266814405449e-13 7.378055215125342 -4.452874970962742 -9.93709716996138e-14 7.295447310200544
          -2.448064594618118 -6.701925298770797e-14 4.891740271354661 -2.399827136148704 -6.81175611842198e-14 4.928613795018766
          -2.448064594618109 -6.743359290613939e-14 4.891740271354672 -2.496299677818443 -6.650213112176758e-14 4.854873038318728
          -4.403642665261821 -1.004936347321241e-13 7.336747400105558 -4.354409211300133 -1.01480442630565e-13 7.378055215125335
          -4.403642665261822 -1.007194837269277e-13 7.336747400105573 -4.452874970962743 -1.008161705779264e-13 7.295447310200537
          -3.44688656065285 -8.264744587108867e-14 6.068984599897117 -3.349268054546213 -8.181990506923791e-14 6.147277261429975
          -3.349268054546221 -8.113691622784837e-14 6.147277261429991 -3.446886560652858 -8.366879403014942e-14 6.068984599897132
          0 0 0 0 0 0
          0 0 0 0 0 0
          -0.206598057575038 -1.850632687801252e-15 0.7210729357903877 -0.1502491931249973 -2.211742003244624e-15 0.7385366547511061
          -0.1502491931249968 -2.284138325001343e-15 0.7385366547511042 -0.2065980575750364 -2.238171909962854e-15 0.7210729357903857
          0 0 0 0 0 0
          0 0 0 0 0 0
          -0.1784138336910469 -4.390620647381251e-16 0.7298101463704258 -0.1502491931249983 1.801522816794458e-16 0.7385366547511061
          -0.1784138336910455 -5.440001941843385e-18 0.7298101463704241 -0.2065980575750372 -3.701405068806539e-16 0.7210729357903871
          -0.05079664366824595 -8.677060185954095e-16 0.1906164441855231 -0.02069600490007348 -1.130776673201395e-16 0.1952355430206316
          -0.02069600490007279 4.375731440933782e-16 0.1952355430206311 -0.05079664366824579 -1.575635149203328e-16 0.1906164441855223
          -0.05079664366824688 -5.686138298609334e-16 0.190616444185525 -0.02069600490007377 -1.462566352550671e-15 0.1952355430206334
          -0.03574465133438189 -7.47124436614474e-16 0.1929217456032986 -0.03574465133438115 -7.188451276319186e-16 0.1929217456032981
          0 0 0 -0.178413833691046 -1.407716137198154e-15 0.7298101463704249
          -0.03574465133438254 2.161446544868836e-16 0.1929217456033007 0 0 0
          0 0 0 0 0 0
          0 0 0 -0.1502491931249973 -2.211742003244624e-15 0.7385366547511061
          -0.09389269078475738 -2.357560043695344e-15 0.7560073954318071 -0.09389269078475578 -2.248050102121825e-15 0.7560073954318047
          -0.1502491931249968 -2.284138325001343e-15 0.7385366547511042 0 0 0
          0 0 0 0 0 0
          0 0 0 -0.1220829122427947 -1.087512330543246e-15 0.747264948610577
          -0.09389269078475872 -1.549509018356765e-15 0.7560073954318068 -0.1220829122427937 -1.284357199774161e-15 0.747264948610575
          -0.1502491931249983 1.801522816794458e-16 0.7385366547511061 -0.02069600490007348 -1.130776673201395e-16 0.1952355430206316
          0.009400149376817256 -4.808217562373505e-16 0.1998523996137377 0.00940014937681834 -1.10410396324756e-15 0.1998523996137374
          -0.02069600490007279 4.375731440933782e-16 0.1952355430206311 -0.02069600490007377 -1.462566352550671e-15 0.1952355430206334
          0.00940014937681688 -1.514901088579245e-15 0.1998523996137396 -0.005648421154233677 -3.894461454505478e-16 0.1975487710415406
          -0.005648421154232732 2.280241664963883e-16 0.1975487710415403 0 0 0
          -0.1220829122427946 -1.065005099835971e-15 0.7472649486105762 -0.005648421154234344 -4.044631722611676e-16 0.1975487710415426
          -0.206598057575038 -1.850632687801252e-15 0.7210729357903877 -0.1502491931249973 -2.211742003244624e-15 0.7385366547511061
          -0.1502491931249968 -2.284138325001343e-15 0.7385366547511042 -0.2065980575750364 -2.238171909962854e-15 0.7210729357903857
          -1.047415526611619 -1.179599667914745e-15 2.506410351411178 -0.9613337247825615 -1.797990033602567e-15 2.555598501077772
          -0.9613337247825638 -2.324084891615902e-15 2.555598501077773 -1.047415526611621 -3.87168643940777e-15 2.50641035141118
          -0.1784138336910469 -4.390620647381251e-16 0.7298101463704258 -0.1502491931249983 1.801522816794458e-16 0.7385366547511061
          -0.1784138336910455 -5.440001941843385e-18 0.7298101463704241 -0.2065980575750372 -3.701405068806539e-16 0.7210729357903871
          -1.004365999483566 -8.054279771713386e-16 2.531016969908574 -0.9613337247825623 -1.75159738993776e-15 2.555598501077772
          -1.004365999483568 -1.423162057120912e-15 2.531016969908576 -1.047415526611619 -2.39950415873651e-15 2.506410351411178
          -0.5302957300131167 -9.787998759942946e-16 1.523074202554489 -0.4569846334385086 -2.497026706820243e-17 1.55504781292328
          -0.4569846334385087 2.092230319086925e-16 1.55504781292328 -0.5302957300131171 -5.377722102582711e-16 1.523074202554489
          -0.5302957300131171 -1.663981006762026e-15 1.52307420255449 -0.4569846334385086 -1.594357491500757e-15 1.555047812923279
          -0.4936396687921102 -1.64628205859415e-15 1.539058254867192 -0.4936396687921106 -1.697509509149557e-15 1.539058254867192
          -0.178413833691046 -1.407716137198154e-15 0.7298101463704249 -1.004365999483566 -2.145209312292659e-15 2.531016969908574
          -0.4936396687921104 -1.240391369551132e-15 1.539058254867192 -0.1502491931249973 -2.211742003244624e-15 0.7385366547511061
          -0.09389269078475738 -2.357560043695344e-15 0.7560073954318071 -0.09389269078475578 -2.248050102121825e-15 0.7560073954318047
          -0.1502491931249968 -2.284138325001343e-15 0.7385366547511042 -0.9613337247825615 -1.797990033602567e-15 2.555598501077772
          -0.8752468442215633 -2.373274028659327e-15 2.604794498727297 -0.8752468442215655 -2.262020147057929e-15 2.604794498727298
          -0.9613337247825638 -2.324084891615902e-15 2.555598501077773 -0.1220829122427947 -1.087512330543246e-15 0.747264948610577
          -0.09389269078475872 -1.549509018356765e-15 0.7560073954318068 -0.1220829122427937 -1.284357199774161e-15 0.747264948610575
          -0.1502491931249983 1.801522816794458e-16 0.7385366547511061 -0.9183003655792936 -8.872622926151628e-16 2.580181927088383
          -0.8752468442215644 -1.01658499807323e-15 2.604794498727298 -0.918300365579296 -1.831288121715683e-15 2.580181927088385
          -0.9613337247825623 -1.75159738993776e-15 2.555598501077772 -0.4569846334385086 -2.497026706820243e-17 1.55504781292328
          -0.3836785459090467 -8.620776005456153e-16 1.587016063031555 -0.3836785459090467 -7.815598997253731e-16 1.587016063031556
          -0.4569846334385087 2.092230319086925e-16 1.55504781292328 -0.4569846334385086 -1.594357491500757e-15 1.555047812923279
          -0.3836785459090465 -1.427709111218858e-15 1.587016063031555 -0.4203307877794472 -1.649248679130845e-15 1.571036046203642
          -0.4203307877794474 -1.81442649571315e-15 1.571036046203642 -0.1220829122427946 -1.065005099835971e-15 0.7472649486105762
          -0.9183003655792943 -9.091070733915742e-16 2.580181927088383 -0.4203307877794473 -1.533551107552082e-15 1.571036046203642
          -1.047415526611619 -1.179599667914745e-15 2.506410351411178 -0.9613337247825615 -1.797990033602567e-15 2.555598501077772
          -0.9613337247825638 -2.324084891615902e-15 2.555598501077773 -1.047415526611621 -3.87168643940777e-15 2.50641035141118
          -2.592817127897923 -4.277404920579509e-15 4.781174454390237 -2.496345789130018 -3.402329313407496e-15 4.854912218318015
          -2.496345789130019 -3.522599877779757e-15 4.854912218318016 -2.592817127897925 -6.587255849631135e-15 4.781174454390236
          -1.004365999483566 -8.054279771713386e-16 2.531016969908574 -0.9613337247825623 -1.75159738993776e-15 2.555598501077772
          -1.004365999483568 -1.423162057120912e-15 2.531016969908576 -1.047415526611619 -2.39950415873651e-15 2.506410351411178
          -2.544575889243213 -2.044993816010656e-15 4.818060460673907 -2.496345789130017 -1.371620268760736e-15 4.854912218318016
          -2.544575889243216 -3.515370634010559e-15 4.818060460673907 -2.592817127897923 -1.839811955643908e-15 4.781174454390238
          -1.744487913329441 -1.558989516914879e-15 3.611717535202678 -1.652256013888452 -1.530861506352082e-15 3.673064023182139
          -1.652256013888449 -1.941138290194687e-15 3.673064023182138 -1.744487913329437 -1.190323284336089e-15 3.611717535202676
          -1.744487913329441 -2.433202561051883e-15 3.611717535202678 -1.652256013888452 -2.647126009849048e-15 3.673064023182139
          -1.698372548602617 -2.242345408712876e-15 3.642387552692862 -1.698372548602613 -2.166052480841201e-15 3.64238755269286
          -1.004365999483566 -2.145209312292659e-15 2.531016969908574 -2.544575889243213 -2.281075989434577e-15 4.818060460673906
          -1.698372548602617 -1.959571210114317e-15 3.642387552692862 -0.9613337247825615 -1.797990033602567e-15 2.555598501077772
          -0.8752468442215633 -2.373274028659327e-15 2.604794498727297 -0.8752468442215655 -2.262020147057929e-15 2.604794498727298
          -0.9613337247825638 -2.324084891615902e-15 2.555598501077773 -2.496345789130018 -3.402329313407496e-15 4.854912218318015
          -2.399872827558019 -3.142678027947298e-15 4.928654829188254 -2.399872827558021 1.184346010339257e-15 4.928654829188255
          -2.496345789130019 -3.522599877779757e-15 4.854912218318016 -0.9183003655792936 -8.872622926151628e-16 2.580181927088383
          -0.8752468442215644 -1.01658499807323e-15 2.604794498727298 -0.918300365579296 -1.831288121715683e-15 2.580181927088385
          -0.9613337247825623 -1.75159738993776e-15 2.555598501077772 -2.448115402894694 -1.315846634341164e-15 4.891765145289612
          -2.399872827558018 -1.189644895632598e-15 4.928654829188255 -2.448115402894696 -5.890002098048728e-16 4.891765145289612
          -2.496345789130017 -1.371620268760736e-15 4.854912218318016 -1.652256013888452 -1.530861506352082e-15 3.673064023182139
          -1.560025912256435 -2.402143918232401e-15 3.73440662986529 -1.560025912256432 -2.997609172749579e-15 3.734406629865289
          -1.652256013888449 -1.941138290194687e-15 3.673064023182138 -1.652256013888452 -2.647126009849048e-15 3.673064023182139
          -1.560025912256435 -3.026431977859304e-15 3.73440662986529 -1.60613987999964 -2.946885658218088e-15 3.703739535662781
          -1.606139879999637 -2.277019571098584e-15 3.70373953566278 -0.9183003655792943 -9.091070733915742e-16 2.580181927088383
          -2.448115402894694 -2.011226154588331e-15 4.89176514528961 -1.60613987999964 -2.516477116202812e-15 3.703739535662781
          -2.592817127897923 -4.277404920579509e-15 4.781174454390237 -2.496345789130018 -3.402329313407496e-15 4.854912218318015
          -2.496345789130019 -3.522599877779757e-15 4.854912218318016 -2.592817127897925 -6.587255849631135e-15 4.781174454390236
          -4.551415164267987 -3.089990833695545e-15 7.212888423695766 -4.452949546793012 -5.30637321725883e-15 7.295492561663148
          -4.452949546793012 -5.181655417452205e-15 7.295492561663149 -4.551415164267987 -7.823099530068698e-15 7.212888423695763
          -2.544575889243213 -2.044993816010656e-15 4.818060460673907 -2.496345789130017 -1.371620268760736e-15 4.854912218318016
          -2.544575889243216 -3.515370634010559e-15 4.818060460673907 -2.592817127897923 -1.839811955643908e-15 4.781174454390238
          -4.502178214094206 -3.067526563746597e-15 7.254209047525039 -4.452949546793012 -2.591764731011844e-15 7.295492561663146
          -4.502178214094206 -4.269873544576552e-15 7.25420904752504 -4.551415164267987 -3.782138726568148e-15 7.212888423695762
          -3.544566017556124 -2.709177050549707e-15 5.990731066847814 -3.446946939721308 -1.905546804116783e-15 6.069026431681168
          -3.446946939721312 -1.653554165087464e-15 6.06902643168117 -3.544566017556127 -1.608758788758361e-15 5.990731066847817
          -3.544566017556128 -1.470126335569831e-15 5.990731066847816 -3.446946939721313 -2.363669390985498e-15 6.06902643168117
          -3.49575748042273 -2.889102223788743e-15 6.029874718081643 -3.495757480422733 -1.671876964192312e-15 6.029874718081644
          -2.544575889243213 -2.281075989434577e-15 4.818060460673906 -4.502178214094206 -3.720590620502384e-15 7.254209047525037
          -3.495757480422734 -2.200670090770089e-15 6.029874718081645 -2.496345789130018 -3.402329313407496e-15 4.854912218318015
          -2.399872827558019 -3.142678027947298e-15 4.928654829188254 -2.399872827558021 1.184346010339257e-15 4.928654829188255
          -2.496345789130019 -3.522599877779757e-15 4.854912218318016 -4.452949546793012 -5.30637321725883e-15 7.295492561663148
          -4.354483417191449 -2.571111109305322e-15 7.378102609044155 -4.354483417191448 -2.795933711549887e-15 7.378102609044157
          -4.452949546793012 -5.181655417452205e-15 7.295492561663149 -2.448115402894694 -1.315846634341164e-15 4.891765145289612
          -2.399872827558018 -1.189644895632598e-15 4.928654829188255 -2.448115402894696 -5.890002098048728e-16 4.891765145289612
          -2.496345789130017 -1.371620268760736e-15 4.854912218318016 -4.403720980453361 -2.876235411899559e-15 7.336777658793497
          -4.354483417191449 -2.067238900732283e-15 7.378102609044156 -4.403720980453362 -1.569048704937084e-15 7.336777658793496
          -4.452949546793012 -2.591764731011844e-15 7.295492561663146 -3.446946939721308 -1.905546804116783e-15 6.069026431681168
          -3.349328254710336 -1.082916093688197e-15 6.147319809430466 -3.34932825471034 -3.070324716933248e-15 6.147319809430467
          -3.446946939721312 -1.653554165087464e-15 6.06902643168117 -3.446946939721313 -2.363669390985498e-15 6.06902643168117
          -3.349328254710341 -1.991855341185469e-15 6.147319809430468 -3.398136445017029 -2.141403394695233e-15 6.108177642388311
          -3.398136445017033 -2.640777627333895e-15 6.108177642388312 -2.448115402894694 -2.011226154588331e-15 4.89176514528961
          -4.403720980453362 -2.314638915713926e-15 7.336777658793499 -3.398136445017033 -2.312172071420919e-15 6.108177642388313
          0.00181128539949112 0.0004236472298114181 0.1383948975090035 -0.006579742901867583 0.0004041546251416066 0.1381304273983756
          0.0004246967324012547 0.002798446828492578 0.266486768544083 -0.003994358723297687 0.001592886470334643 0.2020094893146626
          -0.007225061941870004 0.0004017119065129438 0.1381606984410203 -0.0003635341258724029 0.0006672294563526584 0.07774352555026558
          -0.003413928920060244 0.0008328309164701725 0.03996778664964656 0.00181128539949112 0.0004236472298114181 0.1383948975090035
          -0.006579742901867583 0.0004041546251416066 0.1381304273983756 -0.01163095682064886 0.002775499054808445 0.2662350233964388
          0.0004246967324012547 0.002798446828492578 0.266486768544083 -0.003994358723297687 0.001592886470334643 0.2020094893146626
          -0.01041826724605179 0.00278053934939478 0.2662138942531029 -0.006579742901867583 0.0004041546251416066 0.1381304273983756
          -0.01163095682064886 0.002775499054808445 0.2662350233964388 0.0004246967324012547 0.002798446828492578 0.266486768544083
          -0.003994358723297687 0.001592886470334643 0.2020094893146626 0.0004246967324012547 0.002798446828492578 0.266486768544083
          -0.0008065798030082963 0.00279064021695432 0.2665240246952985 -0.01163095682064886 0.002775499054808445 0.2662350233964388
          0.002562274931180282 0.0004140327305645081 0.1383420488881466 0.00181128539949112 0.0004236472298114181 0.1383948975090035
          -0.006579742901867583 0.0004041546251416066 0.1381304273983756 0.0004246967324012547 0.002798446828492578 0.266486768544083
          -0.003994358723297687 0.001592886470334643 0.2020094893146626 0.0004246967324012547 0.002798446828492578 0.266486768544083
          0.00181128539949112 0.0004236472298114181 0.1383948975090035 -0.0008065798030082963 0.00279064021695432 0.2665240246952985
          -0.006579742901867583 0.0004041546251416066 0.1381304273983756 0.00181128539949112 0.0004236472298114181 0.1383948975090035
          -0.007225061941870004 0.0004017119065129438 0.1381606984410203 -0.003994358723297687 0.001592886470334643 0.2020094893146626
          0.002562274931180282 0.0004140327305645081 0.1383420488881466 0.00181128539949112 0.0004236472298114181 0.1383948975090035
          0.002531122982859692 0.0008362376112868813 0.04005525444131024 -0.0003635341258724029 0.0006672294563526584 0.07774352555026558
          -0.0006753662871297949 0.0003327908955443847 0.01594639071856521 0.002583612795254269 0.0008385389656487157 0.04002713078145279
          0 0 0 0.002531122982859692 0.0008362376112868813 0.04005525444131024
          0.00181128539949112 0.0004236472298114181 0.1383948975090035 -0.002356515089116904 0.0005493473675322057 0.1053407068309232