<?xml version="1.0"?>
<VTKFile type="UnstructuredGrid" version="0.1" byte_order="LittleEndian" header_type="UInt32" compressor="vtkZLibDataCompressor">
  <UnstructuredGrid>
    <FieldData>
      <DataArray type="Float64" Name="TIME" NumberOfTuples="1" format="ascii" RangeMin="0.9999999999999999" RangeMax="0.9999999999999999">
        0.9999999999999999
      </DataArray>
    </FieldData>
    <Piece NumberOfPoints="386" NumberOfCells="601">
      <PointData>
        <DataArray type="Float64" Name="displacement" NumberOfComponents="3" format="ascii" RangeMin="0.17576802434858627" RangeMax="8.703725458768787">
          -0.01192423320341986 4.010212165869779e-16 0.1966526083247825 -0.004842202048844977 2.897937554901001e-16 0.1969019695211209
          -0.004842202048845016 4.98120562536806e-16 0.196901969521121 -0.01192423320341984 5.9374304430214e-16 0.1966526083247826
          -0.02176416164986656 -4.488176801557767e-17 0.3981122451274073 -0.01291754367691446 2.955637834973369e-16 0.3985034604104625
          -0.01291754367691452 5.971968570597638e-16 0.3985034604104651 -0.02176416164986718 -1.206998331978759e-16 0.3981122451274101
          -0.018897747654575036 1.4115242011197532e-16 0.339426175857674 -0.012579737692236371 5.960222810831527e-16 0.32985782778461276
          -0.018339866531735333 1.2792628953482124e-16 0.32800429113584195 -0.016898190278059794 1.1126053805237597e-16 0.3402534944922602
          -0.01067049209709119 3.519274088778975e-16 0.3424056543408112 -0.010204228909906406 5.639072223457149e-16 0.3307653599715271
          -0.010850256266336148 2.9408665636050065e-16 0.346893479896364 -0.017282852133580173 4.374771956832958e-17 0.34482730980616805
          -0.01912706082340362 7.462023198548108e-17 0.3441210624066658 0.002239832852114973 3.508080167461346e-16 0.197151325581529
          0.002239832852115089 2.593475156752562e-16 0.1971513255815291 -0.004071110809981004 5.240861196345749e-16 0.3988946621660074
          -0.004071110809981004 6.751036835081843e-16 0.3988946621660102 -0.007885055245733564 4.850255391048822e-16 0.33165137112050663
          -0.0023973388080506183 4.538728382518552e-16 0.34538882113319985 -0.002026365106193822 5.40398687945437e-16 0.33352982247866014
          -0.008253735590505618 5.213849074354451e-16 0.336548958400676 -0.002531240520318076 4.818062615382901e-16 0.34966928688501003
          -0.009083266652625776 3.095386091450754e-16 0.34756853358539846 -0.03293483893338765 -4.643323714456836e-16 0.6290508911422746
          -0.02350105652184527 3.976436096835943e-17 0.6294968624950833 -0.02350105652184633 7.03034347794944e-17 0.6294968624950882
          -0.03293483893338749 -7.687240712213672e-16 0.6290508911422796 -0.01406716517631629 4.307408762160076e-16 0.6299428422779759
          -0.01406716517631695 4.520157869539e-16 0.6299428422779808 -1.744454653317651 -5.117438383469309e-14 3.611684341466197
          -1.698336742710332 -5.098945558014253e-14 3.6423604813635917 -1.6983367427103344 -5.095609023631958e-14 3.6423604813636006
          -1.744454653317653 -5.117336182422279e-14 3.6116843414662045 -2.592770239620723 -6.714674296313624e-14 4.781137394455684
          -2.544533732879781 -6.697586118615234e-14 4.818008507420694 -2.5445337328797777 -6.62817502390693e-14 4.818008507420699
          -2.59277023962072 -6.546082139040296e-14 4.781137394455691 -1.8772344436421653 -5.36735424558689e-14 3.794729111216349
          -1.861065336947752 -5.337539353159918e-14 3.7875048187975824 -1.866612057820316 -5.3230755329330205e-14 3.7800855260577535
          -1.8480487837714281 -5.3666113591008335e-14 3.832971204867562 -1.8418223215687173 -5.367248622285597e-14 3.8417094976236776
          -1.8303434741653382 -5.3346893214652756e-14 3.8257615748019598 -1.8980392436882707 -5.476224751660239e-14 3.9198134312096626
          -1.9069200526449634 -5.475736062121181e-14 3.907925063448656 -1.934477340928062 -5.4752192209395185e-14 3.8736418202055667
          -1.652222834531763 -5.030417775154305e-14 3.673030347879399 -1.652222834531766 -5.0404561784676665e-14 3.6730303478794073
          -2.496299677818446 -6.63680139080627e-14 4.854873038318723 -2.496299677818443 -6.650213112176758e-14 4.854873038318728
          -1.8003535252303313 -5.304030107291654e-14 3.863105809158235 -1.8063586335903006 -5.331962747844677e-14 3.8888451387970657
          -1.7940277741489754 -5.310895400439632e-14 3.871579961801073 -1.8548721984163166 -5.393278399966906e-14 3.933062020833657
          -1.8615538932768092 -5.428800914899926e-14 3.966127337362537 -1.870891912589792 -5.438972871037431e-14 3.953617886378592
          -1.6983367427103337 -5.069674059577465e-14 3.642360481363607 -1.744454653317653 -5.097333760234286e-14 3.611684341466213
          -2.544533732879771 -6.570943548464841e-14 4.818008507420704 -2.592770239620714 -6.396506360603302e-14 4.781137394455697
          -1.8034679075763438 -5.1981162494585276e-14 3.6930375919238965 -1.796281638345809 -5.1927902649510045e-14 3.6898267977372146
          -1.798746851569164 -5.180480807772992e-14 3.6865293378612893 -1.771273375673001 -5.1900678446569226e-14 3.735222112802348
          -1.7626477146895076 -5.1837705420214554e-14 3.731709732353013 -1.768239971999321 -5.198419790798767e-14 3.739479230878608
          -1.652222834531766 -5.025197943577602e-14 3.673030347879415 -2.496299677818436 -6.668967693243344e-14 4.854873038318734
          -1.7329606218243323 -5.180634181490117e-14 3.7860761736390915 -1.7298150879330327 -5.1596106072471304e-14 3.7725936678596166
          -1.7265015972239777 -5.16984968248876e-14 3.777032505314331 -1.7651265933812368 -5.2019658774779234e-14 3.7438483187713123
          -1.60610988599037 -5.0224530015517416e-14 3.7036983199491726 -1.6061098859903735 -5.000786873041027e-14 3.703698319949178
          -2.448064594618118 -6.701925298770797e-14 4.891740271354661 -2.448064594618115 -6.764320111386697e-14 4.891740271354667
          -1.8348147907923968 -5.437206572162298e-14 3.999454693244066 -1.818059858637848 -5.4100149732691847e-14 3.9777875673329697
          -1.7644440701866821 -5.294163139948367e-14 3.908452757231763 -1.8250181244859567 -5.4591158272583304e-14 4.012589247425439
          -1.770840180565102 -5.333618355674558e-14 3.9361413464168744 -1.7576617619477435 -5.3182229154382076e-14 3.917545911282221
          -1.559993084453855 -4.902234654757185e-14 3.734372311351815 -1.5599930844538579 -4.9025447631377964e-14 3.734372311351822
          -2.399827136148707 -6.592658289296803e-14 4.928613795018759 -2.399827136148704 -6.81175611842198e-14 4.928613795018766
          -1.798684240922467 -5.385945973258884e-14 4.045443541169446 -1.7811977153071001 -5.3660508242171663e-14 4.022654447895584
          -1.728480972738669 -5.255766990511307e-14 3.9539520200999516 -1.7884279434713277 -5.3620298772259296e-14 4.059205990581337
          -1.7352628054097725 -5.25526411943908e-14 3.983605324914286 -1.7212412328313809 -5.2691133671133536e-14 3.963666691078748
          -1.6061098859903733 -4.949496002389755e-14 3.7036983199491855 -2.448064594618109 -6.743359290613939e-14 4.891740271354672
          -1.6976267040428938 -5.146759496587795e-14 3.832833317344406 -1.6940733051499264 -5.1194042741583366e-14 3.8174507637621775
          -1.690305356853147 -5.128882331212174e-14 3.822502515089734 -1.7528444937583154 -5.2757617835437854e-14 3.8934524289301913
          -1.559993084453858 -4.86890202544072e-14 3.734372311351828 -2.399827136148697 -6.858799821073741e-14 4.928613795018771
          -1.6935236807951612 -5.154590730548314e-14 3.838600906442779 -1.6622337528468678 -5.10542339612774e-14 3.879758232851868
          -1.658277678836265 -5.0763518421346835e-14 3.862460465513011 -1.6540544975228448 -5.0917705768436756e-14 3.8681273564975
          -3.544505554522691 -8.39507684448764e-14 5.990689871974909 -3.495695183009209 -8.326552284978172e-14 6.029840679060214
          -3.4956951830092153 -8.36242816818132e-14 6.02984067906022 -3.544505554522696 -8.40111547433432e-14 5.990689871974919
          -3.44688656065285 -8.264744587108867e-14 6.068984599897117 -3.446886560652856 -8.330154755451968e-14 6.068984599897124
          -3.4956951830092162 -8.456612233108658e-14 6.029840679060229 -3.544505554522698 -8.552455988409518e-14 5.990689871974924
          -3.446886560652858 -8.366879403014942e-14 6.068984599897132 -4.551340098883249 -1.020271545448211e-13 7.212845208108793
          -4.502107011605676 -1.015450411272938e-13 7.254149854369574 -4.502107011605678 -9.987325885799129e-14 7.254149854369581
          -4.551340098883251 -9.965917297249732e-14 7.212845208108802 -4.452874970962741 -1.016342304436755e-13 7.29544731020053
          -4.452874970962743 -1.008161705779264e-13 7.295447310200537 -4.502107011605677 -9.924584403051056e-14 7.254149854369587
          -4.55134009888325 -1.000070652963806e-13 7.212845208108806 -4.452874970962742 -9.93709716996138e-14 7.295447310200544
          -3.398078188481995 -8.270795412149515e-14 6.1081274267278225 -3.3980781884819997 -8.288783548700899e-14 6.108127426727829
          -3.349268054546213 -8.181990506923791e-14 6.147277261429975 -3.3492680545462186 -8.221713852246535e-14 6.147277261429984
          -3.3980781884820037 -8.218556137470006e-14 6.108127426727836 -3.349268054546221 -8.113691622784837e-14 6.147277261429991
          -4.403642665261821 -1.004936347321241e-13 7.336747400105558 -4.403642665261824 -1.0107193654040544e-13 7.3367474001055655
          -4.354409211300132 -9.919983358963046e-14 7.378055215125327 -4.354409211300133 -1.01480442630565e-13 7.378055215125335
          -4.403642665261822 -1.007194837269277e-13 7.336747400105573 -4.354409211300132 -1.025266814405449e-13 7.378055215125342
          -1.047415526611619 -1.179599667914745e-15 2.506410351411178 -1.004365999483566 -8.054279771713386e-16 2.531016969908574
          -1.004365999483566 -2.145209312292659e-15 2.531016969908574 -1.047415526611619 -2.39950415873651e-15 2.506410351411178
          -1.744487913329441 -1.558989516914879e-15 3.611717535202678 -1.698372548602617 -2.242345408712876e-15 3.642387552692862
          -1.698372548602617 -1.959571210114317e-15 3.642387552692862 -1.744487913329441 -2.433202561051883e-15 3.611717535202678
          -1.7323649155155565 -1.573607162599166e-15 3.5924948019140053 -1.643028025833072 -1.996974415348396e-15 3.5458064974801453
          -1.6775689653014172 -2.429967514482634e-15 3.5056080472979643 -1.7317819577980385 -1.5690533760066787e-15 3.5931647359023073
          -1.6953551288409443 -2.241923077861269e-15 3.637555506708149 -1.640075999254298 -1.975164810489278e-15 3.5490324249843472
          -1.6955965224785314 -2.236597739136592e-15 3.63794207047765 -1.7327863813962465 -1.5470755007832441e-15 3.5946313606975897
          -1.7333347555574434 -1.5529192795570108e-15 3.5940326209208284 -0.9613337247825615 -1.797990033602567e-15 2.555598501077772
          -0.9613337247825623 -1.75159738993776e-15 2.555598501077772 -1.652256013888452 -1.530861506352082e-15 3.673064023182139
          -1.652256013888452 -2.647126009849048e-15 3.673064023182139 -1.652256013888452 -1.642487950464165e-15 3.673064023182139
          -1.6025096059100365 -2.5826479451160302e-15 3.592606500475273 -1.6562661473743334 -1.5681406113289622e-15 3.6703965039875555
          -1.6371954131658855 -1.942308561047486e-15 3.5521797660023116 -1.6416772557004526 -1.9471418891155544e-15 3.5587883967015537
          -1.683000370364562 -2.0051841079259447e-15 3.652613042855954 -1.6954593517134173 -2.24058906338257e-15 3.6380919438564483
          -1.004365999483568 -1.423162057120912e-15 2.531016969908576 -1.047415526611621 -3.87168643940777e-15 2.50641035141118
          -1.698372548602613 -2.166052480841201e-15 3.64238755269286 -1.744487913329437 -1.190323284336089e-15 3.611717535202676
          -1.6717499247967509 -2.583305227348814e-15 3.4963811328553107 -1.5903189521420427 -2.4491739116611726e-15 3.4538245324795263
          -1.6218031710068492 -1.6622432083230054e-15 3.417183467271422 -1.668252178434586 -2.329164052462631e-15 3.5004007369087713
          -1.5845554714694583 -2.0442184480566627e-15 3.4601227721877694 -1.6350067326813436 -1.910594721794124e-15 3.5409145855307793
          -0.9613337247825638 -2.324084891615902e-15 2.555598501077773 -1.652256013888449 -1.941138290194687e-15 3.673064023182138
          -1.598183830070088 -2.621844528846898e-15 3.5856101921585304 -1.5789314698569747 -2.191662477234434e-15 3.466267581127362
          -1.5472358222544313 -1.999346175655867e-15 3.5032092578543645 -1.6008814714791997 -2.5500715922800626e-15 3.5825052192690134
          -2.592817127897923 -4.277404920579509e-15 4.781174454390237 -2.544575889243213 -2.044993816010656e-15 4.818060460673907
          -2.544575889243213 -2.281075989434577e-15 4.818060460673906 -2.592817127897923 -1.839811955643908e-15 4.781174454390238
          -2.496345789130018 -3.402329313407496e-15 4.854912218318015 -2.496345789130017 -1.371620268760736e-15 4.854912218318016
          -1.659309925816761 -1.5349257933101505e-15 3.6821153782526324 -1.6590087318891378 -1.5458332483623328e-15 3.6825188084614515
          -2.544575889243216 -3.515370634010559e-15 4.818060460673907 -2.592817127897925 -6.587255849631135e-15 4.781174454390236
          -2.496345789130019 -3.522599877779757e-15 4.854912218318016 -0.9183003655792936 -8.872622926151628e-16 2.580181927088383
          -0.9183003655792943 -9.091070733915742e-16 2.580181927088383 -1.60613987999964 -2.946885658218088e-15 3.703739535662781
          -1.60613987999964 -2.516477116202812e-15 3.703739535662781 -1.6038633311387376 -2.5310910331484406e-15 3.6010058590669822
          -1.6000378215755153 -2.5234724794531166e-15 3.5953095599517524 -1.6161651263023542 -2.8817205185348653e-15 3.6970709461226887
          -1.60613987999964 -2.8392835247185147e-15 3.703739535662781 -1.5648695060185385 -2.420034906352827e-15 3.636326074058654
          -0.8752468442215633 -2.373274028659327e-15 2.604794498727297 -0.8752468442215644 -1.01658499807323e-15 2.604794498727298
          -1.560025912256435 -2.402143918232401e-15 3.73440662986529 -1.560025912256435 -3.026431977859304e-15 3.73440662986529
          -1.5659809193594596 -2.508608814174063e-15 3.6433579362717943 -1.562806301143612 -2.42755070673537e-15 3.6385846920873615
          -1.5760655525611116 -2.4419119854813747e-15 3.723739814922428 -1.560025912256435 -2.651859142083162e-15 3.73440662986529
          -1.5271565191948258 -2.929959329298568e-15 3.680185251206493 -0.918300365579296 -1.831288121715683e-15 2.580181927088385
          -1.606139879999637 -2.277019571098584e-15 3.70373953566278 -1.5612807814268503 -2.47179087762492e-15 3.630464039767897
          -1.5420176214496308 -1.9246390562012484e-15 3.508915732102029 -1.5098423530645944 -2.214617171479368e-15 3.546441478766552
          -1.5500936867500563 -1.797485589883752e-15 3.52094123690474 -0.8752468442215655 -2.262020147057929e-15 2.604794498727298
          -1.560025912256432 -2.997609172749579e-15 3.734406629865289 -1.5261020969543302 -2.96325257095366e-15 3.673390349873198
          -1.5242983105006882 -2.9865496234721776e-15 3.675470347721655 -1.505028199359873 -2.2749445520477257e-15 3.551711572368554
          -1.4723741955969174 -2.9034537818104243e-15 3.589816283758775 -2.448115402894694 -1.315846634341164e-15 4.891765145289612
          -2.448115402894694 -2.011226154588331e-15 4.89176514528961 -1.6237328822807098 -2.9558865210324827e-15 3.726489984097394
          -1.6224440173693133 -2.9180346440426216e-15 3.724823284222214 -1.6229793903822625 -2.9142648778863755e-15 3.7275000477490994
          -2.399872827558019 -3.142678027947298e-15 4.928654829188254 -2.399872827558018 -1.189644895632598e-15 4.928654829188255
          -1.588107792246237 -2.367794598393521e-15 3.7710029450766807 -1.58690101214444 -2.425841008507378e-15 3.7726225702505083
          -2.448115402894696 -5.890002098048728e-16 4.891765145289612 -2.399872827558021 1.184346010339257e-15 4.928654829188255
          -3.544566017556124 -2.709177050549707e-15 5.990731066847814 -3.49575748042273 -2.889102223788743e-15 6.029874718081643
          -3.495757480422734 -2.200670090770089e-15 6.029874718081645 -3.544566017556128 -1.470126335569831e-15 5.990731066847816
          -3.446946939721308 -1.905546804116783e-15 6.069026431681168 -3.446946939721313 -2.363669390985498e-15 6.06902643168117
          -3.495757480422733 -1.671876964192312e-15 6.029874718081644 -3.544566017556127 -1.608758788758361e-15 5.990731066847817
          -3.446946939721312 -1.653554165087464e-15 6.06902643168117 -4.551415164267987 -3.089990833695545e-15 7.212888423695766
          -4.502178214094206 -3.067526563746597e-15 7.254209047525039 -4.502178214094206 -3.720590620502384e-15 7.254209047525037
          -4.551415164267987 -3.782138726568148e-15 7.212888423695762 -4.452949546793012 -5.30637321725883e-15 7.295492561663148
          -4.452949546793012 -2.591764731011844e-15 7.295492561663146 -4.502178214094206 -4.269873544576552e-15 7.25420904752504
          -4.551415164267987 -7.823099530068698e-15 7.212888423695763 -4.452949546793012 -5.181655417452205e-15 7.295492561663149
          -3.398136445017029 -2.141403394695233e-15 6.108177642388311 -3.398136445017033 -2.312172071420919e-15 6.108177642388313
          -3.349328254710336 -1.082916093688197e-15 6.147319809430466 -3.349328254710341 -1.991855341185469e-15 6.147319809430468
          -3.398136445017033 -2.640777627333895e-15 6.108177642388312 -3.34932825471034 -3.070324716933248e-15 6.147319809430467
          -4.403720980453361 -2.876235411899559e-15 7.336777658793497 -4.403720980453362 -2.314638915713926e-15 7.336777658793499
          -4.354483417191449 -2.571111109305322e-15 7.378102609044155 -4.354483417191449 -2.067238900732283e-15 7.378102609044156
          -4.403720980453362 -1.569048704937084e-15 7.336777658793496 -4.354483417191448 -2.795933711549887e-15 7.378102609044157
          0.0013350223251100504 0.0012393392838079313 0.18239167157064862 0.0004246967324012547 0.002798446828492578 0.266486768544083
          -0.003910017936156601 0.0013167332187553249 0.18705313161977918 -0.002092518879107019 0.0012098616537962632 0.18117032611259376
          -0.003994358723297687 0.001592886470334643 0.2020094893146626 -0.004751114220560527 0.0012449384299320625 0.18331175314615117
          -0.008319605494955161 0.001220951049692832 0.18225534433188828 -0.01163095682064886 0.002775499054808445 0.2662350233964388
          -0.008007673934841685 0.001288169728286116 0.18577747629878974 -0.01041826724605179 0.00278053934939478 0.2662138942531029
          -0.0008065798030082963 0.00279064021695432 0.2665240246952985 0.0017157939563095736 0.0013582607224398415 0.18908735836073073
          0.0009840399927550545 0.0011716170162316495 0.1788837018342855 -0.005109644592243805 0.0011816756383271534 0.17996795550824338
          -0.00851158328008774 0.0010948577719257888 0.17555840230513206 -0.0053047783460042795 0.0011164322635993248 0.1765644805789208
          -0.008451456795980514 0.004114865677736137 0.3531771842858294 -0.004187537062364345 0.005011564895629979 0.4112186798995973
          -0.007706145489628628 0.004116593254518397 0.3531128652252386 -0.0152657045319126 0.004990599685699704 0.410800432296882
          -0.01590785972119673 0.00498433759165792 0.4108801372514443 -0.009402779736276437 0.004996941376694253 0.4109859804692624
          -0.009727706349862567 0.004998181733122468 0.4110211201033098 -0.01005378324619375 0.004995789608646259 0.4110579270531398
          -0.003550232215967607 0.005007775077878956 0.4111533870781666 -1.217859072592657 -0.00838301477108721 3.1423321281681296
          -1.623725564508339 -0.01124958982587827 3.795697516582855 -1.2883871449142386 -0.008765317848548683 3.1510965989942528
          -1.2315751255744471 -0.008426344046034392 3.099510658322824 -1.294219797962752 -0.008858146865443901 3.187450857669794
          -1.2511869094167944 -0.008531994545085514 3.101005095629266 -1.3509795550186596 -0.008959563761764187 3.1526521266511276
          -1.716697325077516 -0.01138500409490887 3.730525091157244 -1.4138631293439567 -0.009345502016922445 3.1601428225834187
          -1.3665270040640625 -0.009023035965115517 3.103871785081364 -1.384294265169967 -0.009138926546077177 3.128352661627717
          -1.3720342318380128 -0.00905666908082947 3.1042636974763465 -2.488449653321291 -0.0162478218549079 4.996334617178763
          -2.082284880230364 -0.01372493586516668 4.350657738291297 -1.713467302709102 -0.0113385501162247 3.726931475568096
          -1.426076226938466 -0.009192538609800193 3.0729441314012225 -1.809594458987865 -0.01150660738041767 3.669348255802662
          -2.681789775594551 -0.01626159709028777 4.848695407724063 -2.584907059840878 -0.01619486888734441 4.922369668079805
          -2.177115214247449 -0.01380223193784013 4.283268892503224 -2.682833743343167 -0.01608257140724739 4.844687047708578
          -1.80958939429443 -0.01149151765419864 3.667318515926818 -2.682099223289092 -0.01618811961353584 4.846584016745844
          -2.58563604070136 -0.01616629346652414 4.920527455134498 -1.4529199557071326 -0.00934691823274404 3.113669439198294
          -2.081924664029019 -0.01372205510962913 4.352639851470641 -2.487826513081563 -0.01618043060710326 4.998171657580897
          -2.487494560745879 -0.01612058370186864 5.000137694446358 -2.584648857405122 -0.01620071411958318 4.924398144680826
          -1.3063980122949013 -0.008971270116240243 3.282657661745541 -1.279303027927916 -0.008825227664462094 3.2392781949344975
          -1.3388240259141522 -0.009127620749571333 3.246690441726601 -1.623827470544855 -0.01119751670837689 3.793733866643466
          -1.2502164340370656 -0.008649856060339111 3.1934723364692674 -1.3797977924526719 -0.009168065661660882 3.1978427071323354
          -1.313842528706728 -0.008927483749715422 3.198948186574505 -1.623781113038808 -0.01119590483215459 3.797785992019564
          -1.1937748469038523 -0.00819171313240596 3.1043448809384775 -1.369863082876692 -0.00903353027023144 3.100062036513987
          -1.2434808785722025 -0.008463861228919546 3.0859559325579875 -1.327623648867023 -0.008676718227773269 3.0186807987701165
          -1.3019435390591192 -0.00854291051383141 3.016907802695464 -1.3174814625158728 -0.00858609101301561 2.999252874781952
          -1.384500927835993 -0.009080495473848852 3.130524405407476 -1.3628863853228275 -0.008996161440903601 3.0989970715306496
          -1.809297514305185 -0.01149852617988044 3.671284783052121 -1.71655087571444 -0.01139085855438284 3.734564953576882
          -1.3383166784519562 -0.008493590272849244 2.9398585569903135 -1.3117005073761172 -0.008494389984779468 2.971593840187836
          -1.2661785365141727 -0.008364547641777484 3.021808869615945 -1.2376483562395229 -0.0083343722416875 3.0558517933043676
          -3.759911012442485 -0.02221458983088866 6.389299650639908 -3.114703359665493 -0.01926244200241598 5.692185456172703
          -4.11904568580041 -0.02424820729552425 6.922222334182741 -3.760822308258817 -0.0222168684127614 6.387431871430902
          -3.461659141812127 -0.02135061742381125 6.222266956049614 -3.115685271030644 -0.01929020801015846 5.690376409064793
          -4.486176938406288 -0.02630873243260814 7.458442276342245 -4.120188900544116 -0.02428428658128098 6.920447974666794
          -3.762143271067477 -0.0222017900813204 6.385698925316053 -3.211766620100435 -0.01922006616891756 5.615793413111786
          -3.114101954602629 -0.01922463489631404 5.694127002308734 -4.218656369453718 -0.02407890608794061 6.837917770167474
          -4.217488774025938 -0.02411847714994488 6.839732986245897 -4.686937375986689 -0.02575928371344513 7.286836749916488
          -4.685087558471955 -0.02585664441706597 7.288481040235535 -3.657621223243813 -0.02110203187525019 6.062118913859894
          -4.683661896243522 -0.02594134057602972 7.290256882379377 -3.656828211401038 -0.02117894359942823 6.064060356875578
          -3.213336051977839 -0.01914261210201066 5.611936908559184 -3.212337437513105 -0.01919292903683413 5.613787697687161
          -4.220215679582826 -0.02402020946563538 6.836232575909636 -4.170984198144297 -0.02416342086871272 6.877514184171335
          -4.17015271208523 -0.02417402383422546 6.878340806555455 -4.637535706036878 -0.02593216954887805 7.328915597711661
          -4.636578495183609 -0.02596130872627668 7.329721813006418 -4.588144192445671 -0.02609991202530287 7.370969087016825
          -4.587192275853056 -0.02611043260695906 7.37176947466742 -4.586332159228132 -0.02612040234728213 7.372600597860284
          -4.168268064760239 -0.0241840702217884 6.880981002893209 -4.16879384288038 -0.02418479989236679 6.880062737490015
          -4.584910746816326 -0.02612672015103836 7.374326304507118 -4.585568587373025 -0.02612495902039097 7.373456884379772
          -4.535545968719771 -0.02621912993842703 7.416365669276315 -4.536201710012011 -0.02623629338178622 7.415505188472685
          -4.121750730063741 -0.02430294407733058 6.918791552635854 -4.537815676405134 -0.02626103231253601 7.41383223895462
          -4.48938093619006 -0.02643582057796232 7.455160831411079 -4.487581999939526 -0.02638440159241915 7.456755472559952
          -4.634282441715184 -0.02603339099133741 7.332303280024017 -4.634941503676484 -0.02601370315650072 7.331424862791605
          -4.538763977616244 -0.02626644799594227 7.41304378328944 -3.658817967818996 -0.02101437751427174 6.060283982459216
          -1.395725025149459 -0.008909309302721595 3.0266331555388297 -1.373041501731758 -0.008764514523221635 2.992348271728449
          -3.462863570180347 -0.02141523396153893 6.220557880164384 -3.460857683537439 -0.02127498730091847 6.224140167889874
          <InformationKey name="L2_NORM_FINITE_RANGE" location="vtkDataArray" length="2">
            <Value index="0">
              0.17576802435
            </Value>
            <Value index="1">
              8.7037254588
            </Value>
          </InformationKey>
          <InformationKey name="L2_NORM_RANGE" location="vtkDataArray" length="2">
            <Value index="0">
              0.17576802435
            </Value>
            <Value index="1">
              8.7037254588
            </Value>
          </InformationKey>
        </DataArray>
      </PointData>
      <CellData>
        <DataArray type="Float64" Name="element_gid" format="ascii" RangeMin="4" RangeMax="135">
          4 4 4 4 4 4
          5 5 5 5 5 5
          6 6 6 6 6 6
          7 7 7 7 7 7
          12 12 12 12 12 12
          12 12 12 12 12 12
          12 12 12 12 12 12
          12 12 12 12 12 12
          13 13 13 13 13 13
          13 13 13 13 13 13
          13 13 13 13 13 13
          13 13 13 13 13 13
          14 14 14 14 14 14
          14 14 14 14 14 14
          14 14 14 14 14 14
          14 14 14 14 14 14
          14 14 14 14 14 14
          14 14 14 14 14 14
          14 14 14 14 14 14
          14 14 14 14 14 14
          15 15 15 15 15 15
          15 15 15 15 15 15
          15 15 15 15 15 15
          15 15 15 15 15 15
          15 15 15 15 15 15
          15 15 15 15 15 15
          15 15 15 15 15 15
          15 15 15 15 15 15
          20 20 20 20 20 20
          20 20 20 20 20 20
          20 20 20 20 20 20
          20 20 20 20 20 20
          20 20 20 20 20 20
          20 20 20 20 20 20
          20 20 20 20 20 20
          20 20 20 20 20 20
          21 21 21 21 21 21
          21 21 21 21 21 21
          21 21 21 21 21 21
          21 21 21 21 21 21
          21 21 21 21 21 21
          21 21 21 21 21 21
          21 21 21 21 21 21
          21 21 21 21 22 22
          22 22 22 22 22 22
          22 22 22 22 22 22
          22 22 22 22 22 22
          22 22 22 22 22 22
          22 22 22 22 22 22
          22 22 22 22 22 22
          22 22 22 22 22 22
          22 22 22 22 23 23
          23 23 23 23 23 23
          23 23 23 23 23 23
          23 23 23 23 23 23
          23 23 23 23 23 23
          23 23 23 23 23 23
          23 23 23 23 23 23
          23 23 23 23 23 23
          23 23 23 23 24 26
          27 28 29 30 31 37
          38 41 42 44 49 50
          51 55 56 57 58 59
          60 61 62 63 64 66
          74 85 85 85 85 85
          85 85 85 87 87 87
          87 87 87 87 87 88
          88 88 88 88 88 88
          88 89 89 89 89 89
          89 89 89 90 90 90
          90 90 90 90 90 91
          91 91 91 91 91 91
          91 92 92 92 92 92
          92 92 92 98 98 98
          98 98 98 98 98 99
          99 99 99 99 99 99
          99 102 102 102 102 102
          102 102 102 103 103 103
          103 103 103 103 103 105
          105 105 105 105 105 105
          105 110 110 110 110 110
          110 110 110 111 111 111
          111 111 111 111 111 112
          112 112 112 112 112 112
          112 116 116 116 116 116
          116 116 116 117 117 117
          117 117 117 117 117 118
          118 118 118 118 118 118
          118 119 119 119 119 119
          119 119 119 120 120 120
          120 120 120 120 120 121
          121 121 121 121 121 121
          121 122 122 122 122 122
          122 122 122 123 123 123
          123 123 123 123 123 124
          124 124 124 124 124 124
          124 125 125 125 125 125
          125 125 125 127 127 127
          127 127 127 127 127 135
          135 135 135 135 135 135
          135
        </DataArray>
        <DataArray type="Float64" Name="element_owner" format="ascii" RangeMin="0" RangeMax="0">
          0 0 0 0 0 0
          0 0 0 0 0 0
          0 0 0 0 0 0
          0 0 0 0 0 0
          0 0 0 0 0 0
          0 0 0 0 0 0
          0 0 0 0 0 0
          0 0 0 0 0 0
          0 0 0 0 0 0
          0 0 0 0 0 0
          0 0 0 0 0 0
          0 0 0 0 0 0
          0 0 0 0 0 0
          0 0 0 0 0 0
          0 0 0 0 0 0
          0 0 0 0 0 0
          0 0 0 0 0 0
          0 0 0 0 0 0