<VTKFile type="UnstructuredGrid" version="1.0" byte_order="LittleEndian" header_type="UInt64">
  <UnstructuredGrid>
    <Piece NumberOfPoints="207" NumberOfCells="101">
      <PointData>
        <DataArray type="Float32" Name="base_1" NumberOfComponents="3" format="ascii" RangeMin="1" RangeMax="1.7320508075688772">
          1 1 1 1 1 1
          1 1 1 1 1 1
          1 1 1 1 1 1
          1 1 1 1 1 1
          1 1 1 1 1 1
          1 1 1 1 1 1
          1 1 1 1 1 1
          1 1 1 1 1 1
          1 1 1 1 1 1
          1 1 1 1 1 1
          1 1 1 1 1 1
          1 1 1 1 1 1
          1 1 1 1 1 1
          1 1 1 1 1 1
          1 1 1 1 1 1
          1 1 1 1 1 1
          1 1 1 1 1 1
          1 1 1 1 1 1
          1 1 1 1 1 1
          1 1 1 1 1 1
          1 1 1 1 1 1
          1 1 1 1 1 1
          1 1 1 1 1 1
          1 1 1 1 1 1
          1 1 1 1 1 1
          1 1 1 1 1 1
          1 1 1 1 1 1
          1 1 1 1 1 1
          1 1 1 1 1 1
          1 1 1 1 1 1
          1 1 1 1 1 1
          1 1 1 1 1 1
          1 1 1 1 1 1
          1 1 1 1 1 1
          1 1 1 1 1 1
          1 1 1 1 1 1
          1 1 1 1 1 1
          1 1 1 1 1 1
          1 1 1 1 1 1
          1 1 1 1 1 1
          1 1 1 1 1 1
          1 1 1 1 1 1
          -1 0 0 -1 0 0
          -1 0 0 -1 0 0
          -1 0 0 -1 0 0
          -1 0 0 -1 0 0
          -1 0 0 -1 0 0
          -1 0 0 -1 0 0
          -1 0 0 -1 0 0
          -1 0 0 -1 0 0
          -1 0 0 -1 0 0
          -1 0 0 -1 0 0
          -1 0 0 -1 0 0
          -1 0 0 -1 0 0
          -1 0 0 -1 0 0
          -1 0 0 -1 0 0
          -1 0 0 -1 0 0
          -1 0 0 -1 0 0
          -1 0 0 -1 0 0
          -1 0 0 -1 0 0
          -1 0 0 -1 0 0
          -1 0 0 -1 0 0
          -1 0 0 -1 0 0
          -1 0 0 -1 0 0
          -1 0 0 -1 0 0
          -1 0 0 -1 0 0
          -1 0 0 -1 0 0
          -1 0 0 -1 0 0
          -1 0 0 -1 0 0
          -1 0 0 -1 0 0
          -1 0 0 -1 0 0
          -1 0 0 -1 0 0
          -1 0 0 -1 0 0
          -1 0 0 -1 0 0
          -1 0 0 -1 0 0
          -1 0 0 -1 0 0
          -1 0 0 -1 0 0
          -1 0 0 -1 0 0
          -1 0 0 -1 0 0
          -1 0 0 -1 0 0
          -1 0 0 -1 0 0
          -1 0 0 -1 0 0
          -1 0 0 -1 0 0
          -1 0 0 -1 0 0
          -1 0 0 -1 0 0
          -1 0 0 -1 0 0
          -1 0 0 -1 0 0
          -1 0 0 -1 0 0
          -1 0 0 -1 0 0
          -1 0 0 -1 0 0
          -1 0 0 -1 0 0
          -1 0 0 -1 0 0
          -1 0 0 -1 0 0
          -1 0 0 -1 0 0
          -1 0 0 -1 0 0
          -1 0 0 -1 0 0
          -1 0 0 -1 0 0
          -1 0 0 -1 0 0
          -1 0 0 -1 0 0
          -1 0 0 -1 0 0
          -1 0 0 -1 0 0
          -1 0 0 -1 0 0
          -1 0 0 -1 0 0
          -1 0 0
          <InformationKey name="L2_NORM_RANGE" location="vtkDataArray" length="2">
            <Value index="0">
              1
            </Value>
            <Value index="1">
              1.7320508076
            </Value>
          </InformationKey>
          <InformationKey name="L2_NORM_FINITE_RANGE" location="vtkDataArray" length="2">
            <Value index="0">
              1.7320508076
            </Value>
            <Value index="1">
              1.7320508076
            </Value>
          </InformationKey>
        </DataArray>
        <DataArray type="Float32" Name="base_2" NumberOfComponents="3" format="ascii" RangeMin="1" RangeMax="1">
          0 1 0 0 1 0
          0 1 0 0 1 0
          0 1 0 0 1 0
          0 1 0 0 1 0
          0 1 0 0 1 0
          0 1 0 0 1 0
          0 1 0 0 1 0
          0 1 0 0 1 0
          0 1 0 0 1 0
          0 1 0 0 1 0
          0 1 0 0 1 0
          0 1 0 0 1 0
          0 1 0 0 1 0
          0 1 0 0 1 0
          0 1 0 0 1 0
          0 1 0 0 1 0
          0 1 0 0 1 0
          0 1 0 0 1 0
          0 1 0 0 1 0
          0 1 0 0 1 0
          0 1 0 0 1 0
          0 1 0 0 1 0
          0 1 0 0 1 0
          0 1 0 0 1 0
          0 1 0 0 1 0
          0 1 0 0 1 0
          0 1 0 0 1 0
          0 1 0 0 1 0
          0 1 0 0 1 0
          0 1 0 0 1 0
          0 1 0 0 1 0
          0 1 0 0 1 0
          0 1 0 0 1 0
          0 1 0 0 1 0
          0 1 0 0 1 0
          0 1 0 0 1 0
          0 1 0 0 1 0
          0 1 0 0 1 0
          0 1 0 0 1 0
          0 1 0 0 1 0
          0 1 0 0 1 0
          0 1 0 0 1 0
          0 -1 0 0 -1 0
          0 -1 0 0 -1 0
          0 -1 0 0 -1 0
          0 -1 0 0 -1 0
          0 -1 0 0 -1 0
          0 -1 0 0 -1 0
          0 -1 0 0 -1 0
          0 -1 0 0 -1 0
          0 -1 0 0 -1 0
          0 -1 0 0 -1 0
          0 -1 0 0 -1 0
          0 -1 0 0 -1 0
          0 -1 0 0 -1 0
          0 -1 0 0 -1 0
          0 -1 0 0 -1 0
          0 -1 0 0 -1 0
          0 -1 0 0 -1 0
          0 -1 0 0 -1 0
          0 -1 0 0 -1 0
          0 -1 0 0 -1 0
          0 -1 0 0 -1 0
          0 -1 0 0 -1 0
          0 -1 0 0 -1 0
          0 -1 0 0 -1 0
          0 -1 0 0 -1 0
          0 -1 0 0 -1 0
          0 -1 0 0 -1 0
          0 -1 0 0 -1 0
          0 -1 0 0 -1 0
          0 -1 0 0 -1 0
          0 -1 0 0 -1 0
          0 -1 0 0 -1 0
          0 -1 0 0 -1 0
          0 -1 0 0 -1 0
          0 -1 0 0 -1 0
          0 -1 0 0 -1 0
          0 -1 0 0 -1 0
          0 -1 0 0 -1 0
          0 -1 0 0 -1 0
          0 -1 0 0 -1 0
          0 -1 0 0 -1 0
          0 -1 0 0 -1 0
          0 -1 0 0 -1 0
          0 -1 0 0 -1 0
          0 -1 0 0 -1 0
          0 -1 0 0 -1 0
          0 -1 0 0 -1 0
          0 -1 0 0 -1 0
          0 -1 0 0 -1 0
          0 -1 0 0 -1 0
          0 -1 0 0 -1 0
          0 -1 0 0 -1 0
          0 -1 0 0 -1 0
          0 -1 0 0 -1 0
          0 -1 0 0 -1 0
          0 -1 0 0 -1 0
          0 -1 0 0 -1 0
          0 -1 0 0 -1 0
          0 -1 0 0 -1 0
          0 -1 0 0 -1 0
          0 -1 0 0 -1 0
          0 -1 0
          <InformationKey name="L2_NORM_RANGE" location="vtkDataArray" length="2">
            <Value index="0">
              1
            </Value>
            <Value index="1">
              1
            </Value>
          </InformationKey>
          <InformationKey name="L2_NORM_FINITE_RANGE" location="vtkDataArray" length="2">
            <Value index="0">
              1
            </Value>
            <Value index="1">
              1
            </Value>
          </InformationKey>
        </DataArray>
        <DataArray type="Float32" Name="base_3" NumberOfComponents="3" format="ascii" RangeMin="1" RangeMax="1">
          0 0 1 0 0 1
          0 0 1 0 0 1
          0 0 1 0 0 1
          0 0 1 0 0 1
          0 0 1 0 0 1
          0 0 1 0 0 1
          0 0 1 0 0 1
          0 0 1 0 0 1
          0 0 1 0 0 1
          0 0 1 0 0 1
          0 0 1 0 0 1
          0 0 1 0 0 1
          0 0 1 0 0 1
          0 0 1 0 0 1
          0 0 1 0 0 1
          0 0 1 0 0 1
          0 0 1 0 0 1
          0 0 1 0 0 1
          0 0 1 0 0 1
          0 0 1 0 0 1
          0 0 1 0 0 1
          0 0 1 0 0 1
          0 0 1 0 0 1
          0 0 1 0 0 1
          0 0 1 0 0 1
          0 0 1 0 0 1
          0 0 1 0 0 1
          0 0 1 0 0 1
          0 0 1 0 0 1
          0 0 1 0 0 1
          0 0 1 0 0 1
          0 0 1 0 0 1
          0 0 1 0 0 1
          0 0 1 0 0 1
          0 0 1 0 0 1
          0 0 1 0 0 1
          0 0 1 0 0 1
          0 0 1 0 0 1
          0 0 1 0 0 1
          0 0 1 0 0 1
          0 0 1 0 0 1
          0 0 1 0 0 1
          0 0 -1 0 0 -1
          0 0 -1 0 0 -1
          0 0 -1 0 0 -1
          0 0 -1 0 0 -1
          0 0 -1 0 0 -1
          0 0 -1 0 0 -1
          0 0 -1 0 0 -1
          0 0 -1 0 0 -1
          0 0 -1 0 0 -1
          0 0 -1 0 0 -1
          0 0 -1 0 0 -1
          0 0 -1 0 0 -1
          0 0 -1 0 0 -1
          0 0 -1 0 0 -1
          0 0 -1 0 0 -1
          0 0 -1 0 0 -1
          0 0 -1 0 0 -1
          0 0 -1 0 0 -1
          0 0 -1 0 0 -1
          0 0 -1 0 0 -1
          0 0 -1 0 0 -1
          0 0 -1 0 0 -1
          0 0 -1 0 0 -1
          0 0 -1 0 0 -1
          0 0 -1 0 0 -1
          0 0 -1 0 0 -1
          0 0 -1 0 0 -1
          0 0 -1 0 0 -1
          0 0 -1 0 0 -1
          0 0 -1 0 0 -1
          0 0 -1 0 0 -1
          0 0 -1 0 0 -1
          0 0 -1 0 0 -1
          0 0 -1 0 0 -1
          0 0 -1 0 0 -1
          0 0 -1 0 0 -1
          0 0 -1 0 0 -1
          0 0 -1 0 0 -1
          0 0 -1 0 0 -1
          0 0 -1 0 0 -1
          0 0 -1 0 0 -1
          0 0 -1 0 0 -1
          0 0 -1 0 0 -1
          0 0 -1 0 0 -1
          0 0 -1 0 0 -1
          0 0 -1 0 0 -1
          0 0 -1 0 0 -1
          0 0 -1 0 0 -1
          0 0 -1 0 0 -1
          0 0 -1 0 0 -1
          0 0 -1 0 0 -1
          0 0 -1 0 0 -1
          0 0 -1 0 0 -1
          0 0 -1 0 0 -1
          0 0 -1 0 0 -1
          0 0 -1 0 0 -1
          0 0 -1 0 0 -1
          0 0 -1 0 0 -1
          0 0 -1 0 0 -1
          0 0 -1 0 0 -1
          0 0 -1 0 0 -1
          0 0 -1
          <InformationKey name="L2_NORM_RANGE" location="vtkDataArray" length="2">
            <Value index="0">
              1
            </Value>
            <Value index="1">
              1
            </Value>
          </InformationKey>
          <InformationKey name="L2_NORM_FINITE_RANGE" location="vtkDataArray" length="2">
            <Value index="0">
              1
            </Value>
            <Value index="1">
              1
            </Value>
          </InformationKey>
        </DataArray>
      </PointData>
      <CellData>
      </CellData>
      <Points>
        <DataArray type="Float32" Name="Points" NumberOfComponents="3" format="ascii" RangeMin="0.05999999865889549" RangeMax="10.488088481701515">
          4.122427463531494 5.286350727081299 6.166350364685059 0.930717945098877 2.0946409702301025 2.9746410846710205
          4.122427463531494 5.166350364685059 6.286350727081299 0.930717945098877 1.974640965461731 3.0946409702301025
          4.26099157333374 5.0970683097839355 6.217068672180176 1.069282054901123 1.9053590297698975 3.0253589153289795
          4.26099157333374 5.217068672180176 6.0970683097839355 1.069282054901123 2.0253589153289795 2.9053590297698975
          4.122427463531494 5.286350727081299 6.166350364685059 4.122427463531494 5.166350364685059 6.286350727081299
          4.26099157333374 5.0970683097839355 6.217068672180176 4.26099157333374 5.217068672180176 6.0970683097839355
          1.069282054901123 2.0253589153289795 2.9053590297698975 1.069282054901123 1.9053590297698975 3.0253589153289795
          0.930717945098877 1.974640965461731 3.0946409702301025 0.930717945098877 2.0946409702301025 2.9746410846710205
          5 6 7 4.422649383544922 4.87623929977417 6.276239395141602
          4.422649383544922 5.276239395141602 5.87623929977417 3.9607694149017334 5.5071797370910645 6.107179641723633
          3.9607694149017334 5.107179641723633 6.5071797370910645 0.8799999952316284 4.599999904632568 3
          0.8799999952316284 2 3 1 4.599999904632568 3.119999885559082
          1 2 3.119999885559082 1.1200000047683716 4.599999904632568 3
          1.1200000047683716 2 3 1 4.599999904632568 2.880000114440918
          1 2 2.880000114440918 0.8799999952316284 4.599999904632568 3
          1 4.599999904632568 3.119999885559082 1.1200000047683716 4.599999904632568 3
          1 4.599999904632568 2.880000114440918 1 2 2.880000114440918
          1.1200000047683716 2 3 1 2 3.119999885559082
          0.8799999952316284 2 3 1 6 3
          1.399999976158142 4.599999904632568 3 1 4.599999904632568 2.5999999046325684
          0.6000000238418579 4.599999904632568 3 1 4.599999904632568 3.4000000953674316
          1 2.119999885559082 5.599999904632568 1 2.119999885559082 3
          0.8799999952316284 2 5.599999904632568 0.8799999952316284 2 3
          1 1.8799999952316284 5.599999904632568 1 1.8799999952316284 3
          1.1200000047683716 2 5.599999904632568 1.1200000047683716 2 3
          1 2.119999885559082 5.599999904632568 0.8799999952316284 2 5.599999904632568
          1 1.8799999952316284 5.599999904632568 1.1200000047683716 2 5.599999904632568
          1.1200000047683716 2 3 1 1.8799999952316284 3
          0.8799999952316284 2 3 1 2.119999885559082 3
          1 2 7 1 1.600000023841858 5.599999904632568
          1.399999976158142 2 5.599999904632568 1 2.4000000953674316 5.599999904632568
          0.6000000238418579 2 5.599999904632568 -1.5999999046325684 1.8799999952316284 3
          1 1.8799999952316284 3 -1.5999999046325684 2 3.119999885559082
          1 2 3.119999885559082 -1.5999999046325684 2.119999885559082 3
          1 2.119999885559082 3 -1.5999999046325684 2 2.880000114440918
          1 2 2.880000114440918 -1.5999999046325684 1.8799999952316284 3
          -1.5999999046325684 2 3.119999885559082 -1.5999999046325684 2.119999885559082 3
          -1.5999999046325684 2 2.880000114440918 1 2 2.880000114440918
          1 2.119999885559082 3 1 2 3.119999885559082
          1 1.8799999952316284 3 -3 2 3
          -1.5999999046325684 2.4000000953674316 3 -1.5999999046325684 2 2.5999999046325684
          -1.5999999046325684 1.600000023841858 3 -1.5999999046325684 2 3.4000000953674316
          -1.2999999523162842 -0.05999999865889549 -1.5920407760118202e-16 -1.3322675997716858e-17 -0.05999999865889549 -1.6315573225955415e-33
          -1.2999999523162842 -0.04242640733718872 0.04242640733718872 -1.461629134997935e-17 -0.04242640733718872 0.04242640733718872
          -1.2999999523162842 2.8498402334547254e-16 0.05999999865889549 -7.347880950074885e-18 -3.673940475037442e-18 0.05999999865889549
          -1.2999999523162842 0.04242640733718872 0.04242640733718872 4.2248183611696884e-18 0.04242640733718872 0.04242640733718872
          -1.2999999523162842 0.05999999865889549 -1.5185619913264897e-16 1.3322675997716858e-17 0.05999999865889549 7.347880950074885e-18
          -1.2999999523162842 0.04242640733718872 -0.04242640733718872 1.461629134997935e-17 0.04242640733718872 -0.04242640733718872
          -1.2999999523162842 2.9967980675231823e-16 -0.05999999865889549 7.347880950074885e-18 1.102182101152202e-17 -0.05999999865889549
          -1.2999999523162842 -0.04242640733718872 -0.04242640733718872 -4.2248183611696884e-18 -0.04242640733718872 -0.04242640733718872
          -1.2999999523162842 -0.05999999865889549 -1.5920407760118202e-16 -1.2999999523162842 -0.04242640733718872 0.04242640733718872
          -1.2999999523162842 2.8498402334547254e-16 0.05999999865889549 -1.2999999523162842 0.04242640733718872 0.04242640733718872
          -1.2999999523162842 0.05999999865889549 -1.5185619913264897e-16 -1.2999999523162842 0.04242640733718872 -0.04242640733718872
          -1.2999999523162842 2.9967980675231823e-16 -0.05999999865889549 -1.2999999523162842 -0.04242640733718872 -0.04242640733718872
          -4.2248183611696884e-18 -0.04242640733718872 -0.04242640733718872 7.347880950074885e-18 1.102182101152202e-17 -0.05999999865889549
          1.461629134997935e-17 0.04242640733718872 -0.04242640733718872 1.3322675997716858e-17 0.05999999865889549 7.347880950074885e-18
          4.2248183611696884e-18 0.04242640733718872 0.04242640733718872 -7.347880950074885e-18 -3.673940475037442e-18 0.05999999865889549
          -1.461629134997935e-17 -0.04242640733718872 0.04242640733718872 -1.3322675997716858e-17 -0.05999999865889549 -1.6315573225955415e-33
          -2 0 -2.4492937051703357e-16 -1.2999999523162842 0.20000000298023224 -1.5920407760118202e-16
          -1.2999999523162842 0.1414213627576828 -0.1414213627576828 -1.2999999523162842 1.2246467698671066e-17 -0.20000000298023224
          -1.2999999523162842 -0.1414213627576828 -0.1414213627576828 -1.2999999523162842 -0.20000000298023224 -1.8369701465288538e-16
          -1.2999999523162842 -0.1414213627576828 0.1414213627576828 -1.2999999523162842 -3.6739405577555036e-17 0.20000000298023224
          -1.2999999523162842 0.1414213627576828 0.1414213627576828 0.05999999865889549 -1.2999999523162842 1.0737854539443997e-16
          0.05999999865889549 -1.3322675997716858e-17 -5.195736080814524e-18 0.04242640733718872 -1.2999999523162842 0.04242640733718872
          0.04242640733718872 -5.746614380537077e-18 0.04242640733718872 -2.7978829677723506e-16 -1.2999999523162842 0.05999999865889549
          8.869676555851967e-18 5.195736080814524e-18 0.05999999865889549 -0.04242640733718872 -1.2999999523162842 0.04242640733718872
          -0.04242640733718872 1.3094494917021655e-17 0.04242640733718872 -0.05999999865889549 -1.2999999523162842 1.2511789685178267e-16
          -0.05999999865889549 1.3322675997716858e-17 1.2543617444479715e-17 -0.04242640733718872 -1.2999999523162842 -0.04242640733718872
          -0.04242640733718872 5.746614380537077e-18 -0.04242640733718872 -3.048755333205557e-16 -1.2999999523162842 -0.05999999865889549
          -1.621755750592685e-17 -5.195736080814524e-18 -0.05999999865889549 0.04242640733718872 -1.2999999523162842 -0.04242640733718872
          0.04242640733718872 -1.3094494917021655e-17 -0.04242640733718872 0.05999999865889549 -1.2999999523162842 1.0737854539443997e-16
          0.04242640733718872 -1.2999999523162842 0.04242640733718872 -2.7978829677723506e-16 -1.2999999523162842 0.05999999865889549
          -0.04242640733718872 -1.2999999523162842 0.04242640733718872 -0.05999999865889549 -1.2999999523162842 1.2511789685178267e-16
          -0.04242640733718872 -1.2999999523162842 -0.04242640733718872 -3.048755333205557e-16 -1.2999999523162842 -0.05999999865889549
          0.04242640733718872 -1.2999999523162842 -0.04242640733718872 0.04242640733718872 -1.3094494917021655e-17 -0.04242640733718872
          -1.621755750592685e-17 -5.195736080814524e-18 -0.05999999865889549 -0.04242640733718872 5.746614380537077e-18 -0.04242640733718872
          -0.05999999865889549 1.3322675997716858e-17 1.2543617444479715e-17 -0.04242640733718872 1.3094494917021655e-17 0.04242640733718872
          8.869676555851967e-18 5.195736080814524e-18 0.05999999865889549 0.04242640733718872 -5.746614380537077e-18 0.04242640733718872
          0.05999999865889549 -1.3322675997716858e-17 -5.195736080814524e-18 0 -2 1.7319121206853109e-16
          -0.20000000298023224 -1.2999999523162842 1.2989340243395341e-16 -0.1414213627576828 -1.2999999523162842 -0.1414213627576828
          -2.95655890709603e-17 -1.2999999523162842 -0.20000000298023224 0.1414213627576828 -1.2999999523162842 -0.1414213627576828
          0.20000000298023224 -1.2999999523162842 7.076222429203282e-17 0.1414213627576828 -1.2999999523162842 0.1414213627576828
          5.4058526122663654e-17 -1.2999999523162842 0.20000000298023224 -0.1414213627576828 -1.2999999523162842 0.1414213627576828
          -5.195736080814524e-18 0.05999999865889549 -1.2999999523162842 -5.195736080814524e-18 0.05999999865889549 -1.8518411664941076e-17
          0.04242640733718872 0.04242640733718872 -1.2999999523162842 0.04242640733718872 0.04242640733718872 -1.3094494917021655e-17
          0.05999999865889549 -3.923625753573574e-16 -1.2999999523162842 0.05999999865889549 8.869676555851967e-18 -1.133925748170342e-33
          0.04242640733718872 -0.04242640733718872 -1.2999999523162842 0.04242640733718872 -0.04242640733718872 1.3094494917021655e-17
          1.2543617444479715e-17 -0.05999999865889549 -1.2999999523162842 1.2543617444479715e-17 -0.05999999865889549 1.8518411664941076e-17
          -0.04242640733718872 -0.04242640733718872 -1.2999999523162842 -0.04242640733718872 -0.04242640733718872 1.3094494917021655e-17
          -0.05999999865889549 -4.1744983837045766e-16 -1.2999999523162842 -0.05999999865889549 -1.621755750592685e-17 3.401777060840034e-33
          -0.04242640733718872 0.04242640733718872 -1.2999999523162842 -0.04242640733718872 0.04242640733718872 -1.3094494917021655e-17
          -5.195736080814524e-18 0.05999999865889549 -1.2999999523162842 0.04242640733718872 0.04242640733718872 -1.2999999523162842
          0.05999999865889549 -3.923625753573574e-16 -1.2999999523162842 0.04242640733718872 -0.04242640733718872 -1.2999999523162842
          1.2543617444479715e-17 -0.05999999865889549 -1.2999999523162842 -0.04242640733718872 -0.04242640733718872 -1.2999999523162842
          -0.05999999865889549 -4.1744983837045766e-16 -1.2999999523162842 -0.04242640733718872 0.04242640733718872 -1.2999999523162842
          -0.04242640733718872 0.04242640733718872 -1.3094494917021655e-17 -0.05999999865889549 -1.621755750592685e-17 3.401777060840034e-33
          -0.04242640733718872 -0.04242640733718872 1.3094494917021655e-17 1.2543617444479715e-17 -0.05999999865889549 1.8518411664941076e-17
          0.04242640733718872 -0.04242640733718872 1.3094494917021655e-17 0.05999999865889549 8.869676555851967e-18 -1.133925748170342e-33
          0.04242640733718872 0.04242640733718872 -1.3094494917021655e-17 -5.195736080814524e-18 0.05999999865889549 -1.8518411664941076e-17
          0 -1.7319121206853109e-16 -2 1.7319122199469844e-17 -0.20000000298023224 -1.2999999523162842
          -0.1414213627576828 -0.1414213627576828 -1.2999999523162842 -0.20000000298023224 -1.421398709598051e-16 -1.2999999523162842
          -0.1414213627576828 0.1414213627576828 -1.2999999523162842 -4.1812057596811976e-17 0.20000000298023224 -1.2999999523162842
          0.1414213627576828 0.1414213627576828 -1.2999999523162842 0.20000000298023224 -5.851575576618114e-17 -1.2999999523162842
          0.1414213627576828 -0.1414213627576828 -1.2999999523162842
          <InformationKey name="L2_NORM_FINITE_RANGE" location="vtkDataArray" length="2">
            <Value index="0">
              0.059999998659
            </Value>
            <Value index="1">
              10.488088482
            </Value>
          </InformationKey>
          <InformationKey name="L2_NORM_RANGE" location="vtkDataArray" length="2">
            <Value index="0">
              0.059999998659
            </Value>
            <Value index="1">
              10.488088482
            </Value>
          </InformationKey>
        </DataArray>
      </Points>
      <Cells>
        <DataArray type="Int64" Name="connectivity" format="ascii" RangeMin="0" RangeMax="206">
          0 1 3 2 2 3
          5 4 4 5 7 6
          6 7 1 0 8 9
          10 11 12 13 14 15
          20 19 18 17 16 17
          18 16 18 19 16 19
          20 16 20 17 21 22
          24 23 23 24 26 25
          25 26 28 27 27 28
          22 21 29 30 31 32
          33 34 35 36 41 40
          39 38 37 38 39 37
          39 40 37 40 41 37
          41 38 42 43 45 44
          44 45 47 46 46 47
          49 48 48 49 43 42
          50 51 52 53 54 55
          56 57 62 61 60 59
          58 59 60 58 60 61
          58 61 62 58 62 59
          63 64 66 65 65 66
          68 67 67 68 70 69
          69 70 64 63 71 72
          73 74 75 76 77 78
          83 82 81 80 79 80
          81 79 81 82 79 82
          83 79 83 80 84 85
          87 86 86 87 89 88
          88 89 91 90 90 91
          93 92 92 93 95 94
          94 95 97 96 96 97
          99 98 98 99 85 84
          100 101 102 103 104 105
          106 107 108 109 110 111
          112 113 114 115 124 123
          122 121 120 119 118 117
          116 117 118 116 118 119
          116 119 120 116 120 121
          116 121 122 116 122 123
          116 123 124 116 124 117
          125 126 128 127 127 128
          130 129 129 130 132 131
          131 132 134 133 133 134
          136 135 135 136 138 137
          137 138 140 139 139 140
          126 125 141 142 143 144
          145 146 147 148 149 150
          151 152 153 154 155 156
          165 164 163 162 161 160
          159 158 157 158 159 157
          159 160 157 160 161 157
          161 162 157 162 163 157
          163 164 157 164 165 157
          165 158 166 167 169 168
          168 169 171 170 170 171
          173 172 172 173 175 174
          174 175 177 176 176 177
          179 178 178 179 181 180
          180 181 167 166 182 183
          184 185 186 187 188 189
          190 191 192 193 194 195
          196 197 206 205 204 203
          202 201 200 199 198 199
          200 198 200 201 198 201
          202 198 202 203 198 203
          204 198 204 205 198 205
          206 198 206 199
        </DataArray>
        <DataArray type="Int64" Name="offsets" format="ascii" RangeMin="4" RangeMax="400">
          4 8 12 16 20 24
          28 31 34 37 40 44
          48 52 56 60 64 68
          71 74 77 80 84 88
          92 96 100 104 108 111
          114 117 120 124 128 132
          136 140 144 148 151 154
          157 160 164 168 172 176
          180 184 188 192 200 208
          216 219 222 225 228 231
          234 237 240 244 248 252
          256 260 264 268 272 280
          288 296 299 302 305 308
          311 314 317 320 324 328
          332 336 340 344 348 352
          360 368 376 379 382 385
          388 391 394 397 400
        </DataArray>
        <DataArray type="UInt8" Name="types" format="ascii" RangeMin="5" RangeMax="9">
          9 9 9 9 9 9
          9 5 5 5 5 9
          9 9 9 9 9 9
          5 5 5 5 9 9
          9 9 9 9 9 5
          5 5 5 9 9 9
          9 9 9 9 5 5
          5 5 9 9 9 9
          9 9 9 9 7 7
          7 5 5 5 5 5
          5 5 5 9 9 9
          9 9 9 9 9 7
          7 7 5 5 5 5
          5 5 5 5 9 9
          9 9 9 9 9 9
          7 7 7 5 5 5
          5 5 5 5 5
        </DataArray>
      </Cells>
    </Piece>
  </UnstructuredGrid>
</VTKFile>
