<VTKFile type="UnstructuredGrid" version="1.0" byte_order="LittleEndian" header_type="UInt64">
  <UnstructuredGrid>
    <Piece NumberOfPoints="84" NumberOfCells="44">
      <PointData>
        <DataArray type="Float32" Name="base_1" NumberOfComponents="3" format="ascii" RangeMin="1.7320508075688772" RangeMax="1.7320508075688772">
          1 1 1 1 1 1
          1 1 1 1 1 1
          1 1 1 1 1 1
          1 1 1 1 1 1
          1 1 1 1 1 1
          1 1 1 1 1 1
          1 1 1 1 1 1
          1 1 1 1 1 1
          1 1 1 1 1 1
          1 1 1 1 1 1
          1 1 1 1 1 1
          1 1 1 1 1 1
          1 1 1 1 1 1
          1 1 1 1 1 1
          1 1 1 1 1 1
          1 1 1 1 1 1
          1 1 1 1 1 1
          1 1 1 1 1 1
          1 1 1 1 1 1
          1 1 1 1 1 1
          1 1 1 1 1 1
          1 1 1 1 1 1
          1 1 1 1 1 1
          1 1 1 1 1 1
          1 1 1 1 1 1
          1 1 1 1 1 1
          1 1 1 1 1 1
          1 1 1 1 1 1
          1 1 1 1 1 1
          1 1 1 1 1 1
          1 1 1 1 1 1
          1 1 1 1 1 1
          1 1 1 1 1 1
          1 1 1 1 1 1
          1 1 1 1 1 1
          1 1 1 1 1 1
          1 1 1 1 1 1
          1 1 1 1 1 1
          1 1 1 1 1 1
          1 1 1 1 1 1
          1 1 1 1 1 1
          1 1 1 1 1 1
          <InformationKey name="L2_NORM_RANGE" location="vtkDataArray" length="2">
            <Value index="0">
              1.7320508076
            </Value>
            <Value index="1">
              1.7320508076
            </Value>
          </InformationKey>
          <InformationKey name="L2_NORM_FINITE_RANGE" location="vtkDataArray" length="2">
            <Value index="0">
              1.7320508076
            </Value>
            <Value index="1">
              1.7320508076
            </Value>
          </InformationKey>
        </DataArray>
        <DataArray type="Float32" Name="base_2" NumberOfComponents="3" format="ascii" RangeMin="1" RangeMax="1">
          0 1 0 0 1 0
          0 1 0 0 1 0
          0 1 0 0 1 0
          0 1 0 0 1 0
          0 1 0 0 1 0
          0 1 0 0 1 0
          0 1 0 0 1 0
          0 1 0 0 1 0
          0 1 0 0 1 0
          0 1 0 0 1 0
          0 1 0 0 1 0
          0 1 0 0 1 0
          0 1 0 0 1 0
          0 1 0 0 1 0
          0 1 0 0 1 0
          0 1 0 0 1 0
          0 1 0 0 1 0
          0 1 0 0 1 0
          0 1 0 0 1 0
          0 1 0 0 1 0
          0 1 0 0 1 0
          0 1 0 0 1 0
          0 1 0 0 1 0
          0 1 0 0 1 0
          0 1 0 0 1 0
          0 1 0 0 1 0
          0 1 0 0 1 0
          0 1 0 0 1 0
          0 1 0 0 1 0
          0 1 0 0 1 0
          0 1 0 0 1 0
          0 1 0 0 1 0
          0 1 0 0 1 0
          0 1 0 0 1 0
          0 1 0 0 1 0
          0 1 0 0 1 0
          0 1 0 0 1 0
          0 1 0 0 1 0
          0 1 0 0 1 0
          0 1 0 0 1 0
          0 1 0 0 1 0
          0 1 0 0 1 0
          <InformationKey name="L2_NORM_RANGE" location="vtkDataArray" length="2">
            <Value index="0">
              1
            </Value>
            <Value index="1">
              1
            </Value>
          </InformationKey>
          <InformationKey name="L2_NORM_FINITE_RANGE" location="vtkDataArray" length="2">
            <Value index="0">
              1
            </Value>
            <Value index="1">
              1
            </Value>
          </InformationKey>
        </DataArray>
        <DataArray type="Float32" Name="base_3" NumberOfComponents="3" format="ascii" RangeMin="1" RangeMax="1">
          0 0 1 0 0 1
          0 0 1 0 0 1
          0 0 1 0 0 1
          0 0 1 0 0 1
          0 0 1 0 0 1
          0 0 1 0 0 1
          0 0 1 0 0 1
          0 0 1 0 0 1
          0 0 1 0 0 1
          0 0 1 0 0 1
          0 0 1 0 0 1
          0 0 1 0 0 1
          0 0 1 0 0 1
          0 0 1 0 0 1
          0 0 1 0 0 1
          0 0 1 0 0 1
          0 0 1 0 0 1
          0 0 1 0 0 1
          0 0 1 0 0 1
          0 0 1 0 0 1
          0 0 1 0 0 1
          0 0 1 0 0 1
          0 0 1 0 0 1
          0 0 1 0 0 1
          0 0 1 0 0 1
          0 0 1 0 0 1
          0 0 1 0 0 1
          0 0 1 0 0 1
          0 0 1 0 0 1
          0 0 1 0 0 1
          0 0 1 0 0 1
          0 0 1 0 0 1
          0 0 1 0 0 1
          0 0 1 0 0 1
          0 0 1 0 0 1
          0 0 1 0 0 1
          0 0 1 0 0 1
          0 0 1 0 0 1
          0 0 1 0 0 1
          0 0 1 0 0 1
          0 0 1 0 0 1
          0 0 1 0 0 1
          <InformationKey name="L2_NORM_RANGE" location="vtkDataArray" length="2">
            <Value index="0">
              1
            </Value>
            <Value index="1">
              1
            </Value>
          </InformationKey>
          <InformationKey name="L2_NORM_FINITE_RANGE" location="vtkDataArray" length="2">
            <Value index="0">
              1
            </Value>
            <Value index="1">
              1
            </Value>
          </InformationKey>
        </DataArray>
        <DataArray type="Float32" Name="base_4" NumberOfComponents="3" format="ascii" RangeMin="1" RangeMax="1">
          -1 0 0 -1 0 0
          -1 0 0 -1 0 0
          -1 0 0 -1 0 0
          -1 0 0 -1 0 0
          -1 0 0 -1 0 0
          -1 0 0 -1 0 0
          -1 0 0 -1 0 0
          -1 0 0 -1 0 0
          -1 0 0 -1 0 0
          -1 0 0 -1 0 0
          -1 0 0 -1 0 0
          -1 0 0 -1 0 0
          -1 0 0 -1 0 0
          -1 0 0 -1 0 0
          -1 0 0 -1 0 0
          -1 0 0 -1 0 0
          -1 0 0 -1 0 0
          -1 0 0 -1 0 0
          -1 0 0 -1 0 0
          -1 0 0 -1 0 0
          -1 0 0 -1 0 0
          -1 0 0 -1 0 0
          -1 0 0 -1 0 0
          -1 0 0 -1 0 0
          -1 0 0 -1 0 0
          -1 0 0 -1 0 0
          -1 0 0 -1 0 0
          -1 0 0 -1 0 0
          -1 0 0 -1 0 0
          -1 0 0 -1 0 0
          -1 0 0 -1 0 0
          -1 0 0 -1 0 0
          -1 0 0 -1 0 0
          -1 0 0 -1 0 0
          -1 0 0 -1 0 0
          -1 0 0 -1 0 0
          -1 0 0 -1 0 0
          -1 0 0 -1 0 0
          -1 0 0 -1 0 0
          -1 0 0 -1 0 0
          -1 0 0 -1 0 0
          -1 0 0 -1 0 0
          <InformationKey name="L2_NORM_RANGE" location="vtkDataArray" length="2">
            <Value index="0">
              1
            </Value>
            <Value index="1">
              1
            </Value>
          </InformationKey>
          <InformationKey name="L2_NORM_FINITE_RANGE" location="vtkDataArray" length="2">
            <Value index="0">
              1
            </Value>
            <Value index="1">
              1
            </Value>
          </InformationKey>
        </DataArray>
      </PointData>
      <CellData>
      </CellData>
      <Points>
        <DataArray type="Float32" Name="Points" NumberOfComponents="3" format="ascii" RangeMin="3.646148743424999" RangeMax="10.488088481701515">
          4.122427463531494 5.286350727081299 6.166350364685059 0.930717945098877 2.0946409702301025 2.9746410846710205
          4.122427463531494 5.166350364685059 6.286350727081299 0.930717945098877 1.974640965461731 3.0946409702301025
          4.26099157333374 5.0970683097839355 6.217068672180176 1.069282054901123 1.9053590297698975 3.0253589153289795
          4.26099157333374 5.217068672180176 6.0970683097839355 1.069282054901123 2.0253589153289795 2.9053590297698975
          4.122427463531494 5.286350727081299 6.166350364685059 4.122427463531494 5.166350364685059 6.286350727081299
          4.26099157333374 5.0970683097839355 6.217068672180176 4.26099157333374 5.217068672180176 6.0970683097839355
          1.069282054901123 2.0253589153289795 2.9053590297698975 1.069282054901123 1.9053590297698975 3.0253589153289795
          0.930717945098877 1.974640965461731 3.0946409702301025 0.930717945098877 2.0946409702301025 2.9746410846710205
          5 6 7 4.422649383544922 4.87623929977417 6.276239395141602
          4.422649383544922 5.276239395141602 5.87623929977417 3.9607694149017334 5.5071797370910645 6.107179641723633
          3.9607694149017334 5.107179641723633 6.5071797370910645 0.8799999952316284 4.599999904632568 3
          0.8799999952316284 2 3 1 4.599999904632568 3.119999885559082
          1 2 3.119999885559082 1.1200000047683716 4.599999904632568 3
          1.1200000047683716 2 3 1 4.599999904632568 2.880000114440918
          1 2 2.880000114440918 0.8799999952316284 4.599999904632568 3
          1 4.599999904632568 3.119999885559082 1.1200000047683716 4.599999904632568 3
          1 4.599999904632568 2.880000114440918 1 2 2.880000114440918
          1.1200000047683716 2 3 1 2 3.119999885559082
          0.8799999952316284 2 3 1 6 3
          1.399999976158142 4.599999904632568 3 1 4.599999904632568 2.5999999046325684
          0.6000000238418579 4.599999904632568 3 1 4.599999904632568 3.4000000953674316
          1 2.119999885559082 5.599999904632568 1 2.119999885559082 3
          0.8799999952316284 2 5.599999904632568 0.8799999952316284 2 3
          1 1.8799999952316284 5.599999904632568 1 1.8799999952316284 3
          1.1200000047683716 2 5.599999904632568 1.1200000047683716 2 3
          1 2.119999885559082 5.599999904632568 0.8799999952316284 2 5.599999904632568
          1 1.8799999952316284 5.599999904632568 1.1200000047683716 2 5.599999904632568
          1.1200000047683716 2 3 1 1.8799999952316284 3
          0.8799999952316284 2 3 1 2.119999885559082 3
          1 2 7 1 1.600000023841858 5.599999904632568
          1.399999976158142 2 5.599999904632568 1 2.4000000953674316 5.599999904632568
          0.6000000238418579 2 5.599999904632568 -1.5999999046325684 1.8799999952316284 3
          1 1.8799999952316284 3 -1.5999999046325684 2 3.119999885559082
          1 2 3.119999885559082 -1.5999999046325684 2.119999885559082 3
          1 2.119999885559082 3 -1.5999999046325684 2 2.880000114440918
          1 2 2.880000114440918 -1.5999999046325684 1.8799999952316284 3
          -1.5999999046325684 2 3.119999885559082 -1.5999999046325684 2.119999885559082 3
          -1.5999999046325684 2 2.880000114440918 1 2 2.880000114440918
          1 2.119999885559082 3 1 2 3.119999885559082
          1 1.8799999952316284 3 -3 2 3
          -1.5999999046325684 2.4000000953674316 3 -1.5999999046325684 2 2.5999999046325684
          -1.5999999046325684 1.600000023841858 3 -1.5999999046325684 2 3.4000000953674316
          <InformationKey name="L2_NORM_FINITE_RANGE" location="vtkDataArray" length="2">
            <Value index="0">
              3.6461487434
            </Value>
            <Value index="1">
              10.488088482
            </Value>
          </InformationKey>
          <InformationKey name="L2_NORM_RANGE" location="vtkDataArray" length="2">
            <Value index="0">
              3.6461487434
            </Value>
            <Value index="1">
              10.488088482
            </Value>
          </InformationKey>
        </DataArray>
      </Points>
      <Cells>
        <DataArray type="Int64" Name="connectivity" format="ascii" RangeMin="0" RangeMax="83">
          0 1 3 2 2 3
          5 4 4 5 7 6
          6 7 1 0 8 9
          10 11 12 13 14 15
          20 19 18 17 16 17
          18 16 18 19 16 19
          20 16 20 17 21 22
          24 23 23 24 26 25
          25 26 28 27 27 28
          22 21 29 30 31 32
          33 34 35 36 41 40
          39 38 37 38 39 37
          39 40 37 40 41 37
          41 38 42 43 45 44
          44 45 47 46 46 47
          49 48 48 49 43 42
          50 51 52 53 54 55
          56 57 62 61 60 59
          58 59 60 58 60 61
          58 61 62 58 62 59
          63 64 66 65 65 66
          68 67 67 68 70 69
          69 70 64 63 71 72
          73 74 75 76 77 78
          83 82 81 80 79 80
          81 79 81 82 79 82
          83 79 83 80
        </DataArray>
        <DataArray type="Int64" Name="offsets" format="ascii" RangeMin="4" RangeMax="160">
          4 8 12 16 20 24
          28 31 34 37 40 44
          48 52 56 60 64 68
          71 74 77 80 84 88
          92 96 100 104 108 111
          114 117 120 124 128 132
          136 140 144 148 151 154
          157 160
        </DataArray>
        <DataArray type="UInt8" Name="types" format="ascii" RangeMin="5" RangeMax="9">
          9 9 9 9 9 9
          9 5 5 5 5 9
          9 9 9 9 9 9
          5 5 5 5 9 9
          9 9 9 9 9 5
          5 5 5 9 9 9
          9 9 9 9 5 5
          5 5
        </DataArray>
      </Cells>
    </Piece>
  </UnstructuredGrid>
</VTKFile>
