<?xml version="1.0"?>
<VTKFile type="UnstructuredGrid" version="0.1" byte_order="LittleEndian" header_type="UInt32" compressor="vtkZLibDataCompressor">
  <UnstructuredGrid>
    <Piece NumberOfPoints="123" NumberOfCells="41">
      <PointData>
        <DataArray type="Float64" Name="node_value" format="ascii" RangeMin="0.5" RangeMax="1">
          1 0.5 1 1 0.5 1
          1 0.5 1 1 0.5 1
          1 0.5 1 1 0.5 1
          1 0.5 1 1 0.5 1
          1 0.5 1 1 0.5 1
          1 0.5 1 1 0.5 1
          1 0.5 1 1 0.5 1
          1 0.5 1 1 0.5 1
          1 0.5 1 1 0.5 1
          1 0.5 1 1 0.5 1
          1 0.5 1 1 0.5 1
          1 0.5 1 1 0.5 1
          1 0.5 1 1 0.5 1
          1 0.5 1 1 0.5 1
          1 0.5 1 1 0.5 1
          1 0.5 1 1 0.5 1
          1 0.5 1 1 0.5 1
          1 0.5 1 1 0.5 1
          1 0.5 1 1 0.5 1
          1 0.5 1 1 0.5 1
          1 0.5 1
        </DataArray>
        <DataArray type="Float64" Name="base_vector_1" NumberOfComponents="3" format="ascii" RangeMin="1" RangeMax="1.0000000000000002">
          1 0 0 1 0 0
          1 0 0 1 0 0
          1 0 0 1 0 0
          1 0 0 1 0 0
          1 0 0 1 0 0
          1 0 0 1 0 0
          1 0 0 1 0 0
          1 0 0 0 1 0
          0 1 0 0 1 0
          0 1 0 0 1 0
          0 1 0 -1 0 0
          -1 0 0 -1 0 0
          -1 0 0 -1 0 0
          -1 0 0 0 -1 0
          0 -1 0 0 -1 0
          0 -1 0 0 -1 0
          0 -1 0 0 1 0
          0 1 0 0 1 0
          0 1 0 0 1 0
          0 1 0 0.4472135954999579 0.8944271909999161 0
          0.4472135954999579 0.8944271909999161 0 0.4472135954999579 0.8944271909999161 0
          0.4472135954999579 0.8944271909999161 0 0.4472135954999579 0.8944271909999161 0
          0.4472135954999579 0.8944271909999161 0 0 1 0
          0 1 0 0 1 0
          0 1 0 0 1 0
          0 1 0 -0.4472135954999579 -0.8944271909999161 0
          -0.4472135954999579 -0.8944271909999161 0 -0.4472135954999579 -0.8944271909999161 0
          -0.4472135954999579 -0.8944271909999161 0 -0.4472135954999579 -0.8944271909999161 0
          -0.4472135954999579 -0.8944271909999161 0 0 -1 0
          0 -1 0 0 -1 0
          0 -1 0 0 -1 0
          0 -1 0 0.4472135954999579 0.8944271909999161 0
          0.4472135954999579 0.8944271909999161 0 0.4472135954999579 0.8944271909999161 0
          0.4472135954999579 0.8944271909999161 0 0.4472135954999579 0.8944271909999161 0
          0.4472135954999579 0.8944271909999161 0 0 -1 0
          0 -1 0 0 -1 0
          0 -1 0 0 -1 0
          0 -1 0 -0.4472135954999579 -0.8944271909999161 0
          -0.4472135954999579 -0.8944271909999161 0 -0.4472135954999579 -0.8944271909999161 0
          -0.4472135954999579 -0.8944271909999161 0 -0.4472135954999579 -0.8944271909999161 0
          -0.4472135954999579 -0.8944271909999161 0 0 1 0
          0 1 0 0 1 0
          0 1 0 0 1 0
          0 1 0 0.4472135954999579 0.8944271909999161 0
          0.4472135954999579 0.8944271909999161 0 0.4472135954999579 0.8944271909999161 0
          0.4472135954999579 0.8944271909999161 0 0.4472135954999579 0.8944271909999161 0
          0.4472135954999579 0.8944271909999161 0 -0.4472135954999579 0.8944271909999161 0
          -0.4472135954999579 0.8944271909999161 0 -0.4472135954999579 0.8944271909999161 0
          -0.4472135954999579 0.8944271909999161 0 -0.4472135954999579 0.8944271909999161 0
          -0.4472135954999579 0.8944271909999161 0 0 1 0
          0 1 0 0 1 0
          0 1 0 0 1 0
          0 1 0 0.4472135954999579 0.8944271909999161 0
          0.4472135954999579 0.8944271909999161 0 0.4472135954999579 0.8944271909999161 0
          0.4472135954999579 0.8944271909999161 0 0.4472135954999579 0.8944271909999161 0
          0.4472135954999579 0.8944271909999161 0 -0.4472135954999579 0.8944271909999161 0
          -0.4472135954999579 0.8944271909999161 0 -0.4472135954999579 0.8944271909999161 0
          -0.4472135954999579 0.8944271909999161 0 -0.4472135954999579 0.8944271909999161 0
          -0.4472135954999579 0.8944271909999161 0 -0.24253562503633297 0.970142500145332 0
          -0.24253562503633297 0.970142500145332 0 -0.24253562503633297 0.970142500145332 0
          -0.24253562503633297 0.970142500145332 0 -0.24253562503633297 0.970142500145332 0
          -0.24253562503633297 0.970142500145332 0
          <InformationKey name="L2_NORM_RANGE" location="vtkDataArray" length="2">
            <Value index="0">
              1
            </Value>
            <Value index="1">
              1
            </Value>
          </InformationKey>
        </DataArray>
        <DataArray type="Float64" Name="base_vector_2" NumberOfComponents="3" format="ascii" RangeMin="1" RangeMax="1.0000000000000002">
          0 1 0 0 1 0
          0 1 0 0 1 0
          0 1 0 0 1 0
          0 1 0 0 1 0
          0 1 0 0 1 0
          0 1 0 0 1 0
          0 1 0 0 1 0
          0 1 0 0 0 1
          0 0 1 0 0 1
          0 0 1 0 0 1
          0 0 1 0 1 0
          0 1 0 0 1 0
          0 1 0 0 1 0
          0 1 0 0 0 1
          0 0 1 0 0 1
          0 0 1 0 0 1
          0 0 1 0 0 1
          0 0 1 0 0 1
          0 0 1 0 0 1
          0 0 1 0 0 1.0000000000000002
          0 0 1.0000000000000002 0 0 1.0000000000000002
          0 0 1.0000000000000002 0 0 1.0000000000000002
          0 0 1.0000000000000002 0 0 1
          0 0 1 0 0 1
          0 0 1 0 0 1
          0 0 1 0 0 1.0000000000000002
          0 0 1.0000000000000002 0 0 1.0000000000000002
          0 0 1.0000000000000002 0 0 1.0000000000000002
          0 0 1.0000000000000002 0 0 1
          0 0 1 0 0 1
          0 0 1 0 0 1
          0 0 1 0 0 1.0000000000000002
          0 0 1.0000000000000002 0 0 1.0000000000000002
          0 0 1.0000000000000002 0 0 1.0000000000000002
          0 0 1.0000000000000002 0 0 1
          0 0 1 0 0 1
          0 0 1 0 0 1
          0 0 1 0 0 1.0000000000000002
          0 0 1.0000000000000002 0 0 1.0000000000000002
          0 0 1.0000000000000002 0 0 1.0000000000000002
          0 0 1.0000000000000002 0 0 1
          0 0 1 0 0 1
          0 0 1 0 0 1
          0 0 1 0 0 1.0000000000000002
          0 0 1.0000000000000002 0 0 1.0000000000000002
          0 0 1.0000000000000002 0 0 1.0000000000000002
          0 0 1.0000000000000002 0 0 1.0000000000000002
          0 0 1.0000000000000002 0 0 1.0000000000000002
          0 0 1.0000000000000002 0 0 1.0000000000000002
          0 0 1.0000000000000002 0 0 1
          0 0 1 0 0 1
          0 0 1 0 0 1
          0 0 1 0 0 1.0000000000000002
          0 0 1.0000000000000002 0 0 1.0000000000000002
          0 0 1.0000000000000002 0 0 1.0000000000000002
          0 0 1.0000000000000002 0 0 1.0000000000000002
          0 0 1.0000000000000002 0 0 1.0000000000000002
          0 0 1.0000000000000002 0 0 1.0000000000000002
          0 0 1.0000000000000002 0 0 1
          0 0 1 0 0 1
          0 0 1 0 0 1
          0 0 1
          <InformationKey name="L2_NORM_RANGE" location="vtkDataArray" length="2">
            <Value index="0">
              1
            </Value>
            <Value index="1">
              1
            </Value>
          </InformationKey>
        </DataArray>
        <DataArray type="Float64" Name="base_vector_3" NumberOfComponents="3" format="ascii" RangeMin="1" RangeMax="1.0000000000000002">
          0 0 1 0 0 1
          0 0 1 0 0 1
          0 0 1 0 0 1
          0 0 1 0 0 1
          0 0 1 0 0 1
          0 0 1 0 0 1
          0 0 1 0 0 1
          0 0 1 1 0 0
          1 0 0 1 0 0
          1 0 0 1 0 0
          1 0 0 0 0 -1
          0 0 -1 0 0 -1
          0 0 -1 0 0 -1
          0 0 -1 -1 0 0
          -1 0 0 -1 0 0
          -1 0 0 -1 0 0
          -1 0 0 1 0 0
          1 0 0 1 0 0
          1 0 0 1 0 0
          1 0 0 0.8944271909999161 -0.4472135954999579 0
          0.8944271909999161 -0.4472135954999579 0 0.8944271909999161 -0.4472135954999579 0
          0.8944271909999161 -0.4472135954999579 0 0.8944271909999161 -0.4472135954999579 0
          0.8944271909999161 -0.4472135954999579 0 1 0 0
          1 0 0 1 0 0
          1 0 0 1 0 0
          1 0 0 -0.8944271909999161 0.4472135954999579 0
          -0.8944271909999161 0.4472135954999579 0 -0.8944271909999161 0.4472135954999579 0
          -0.8944271909999161 0.4472135954999579 0 -0.8944271909999161 0.4472135954999579 0
          -0.8944271909999161 0.4472135954999579 0 -1 0 0
          -1 0 0 -1 0 0
          -1 0 0 -1 0 0
          -1 0 0 0.8944271909999161 -0.4472135954999579 0
          0.8944271909999161 -0.4472135954999579 0 0.8944271909999161 -0.4472135954999579 0
          0.8944271909999161 -0.4472135954999579 0 0.8944271909999161 -0.4472135954999579 0
          0.8944271909999161 -0.4472135954999579 0 -1 0 0
          -1 0 0 -1 0 0
          -1 0 0 -1 0 0
          -1 0 0 -0.8944271909999161 0.4472135954999579 0
          -0.8944271909999161 0.4472135954999579 0 -0.8944271909999161 0.4472135954999579 0
          -0.8944271909999161 0.4472135954999579 0 -0.8944271909999161 0.4472135954999579 0
          -0.8944271909999161 0.4472135954999579 0 1 0 0
          1 0 0 1 0 0
          1 0 0 1 0 0
          1 0 0 0.8944271909999161 -0.4472135954999579 0
          0.8944271909999161 -0.4472135954999579 0 0.8944271909999161 -0.4472135954999579 0
          0.8944271909999161 -0.4472135954999579 0 0.8944271909999161 -0.4472135954999579 0
          0.8944271909999161 -0.4472135954999579 0 0.8944271909999161 0.4472135954999579 0
          0.8944271909999161 0.4472135954999579 0 0.8944271909999161 0.4472135954999579 0
          0.8944271909999161 0.4472135954999579 0 0.8944271909999161 0.4472135954999579 0
          0.8944271909999161 0.4472135954999579 0 1 0 0
          1 0 0 1 0 0
          1 0 0 1 0 0
          1 0 0 0.8944271909999161 -0.4472135954999579 0
          0.8944271909999161 -0.4472135954999579 0 0.8944271909999161 -0.4472135954999579 0
          0.8944271909999161 -0.4472135954999579 0 0.8944271909999161 -0.4472135954999579 0
          0.8944271909999161 -0.4472135954999579 0 0.8944271909999161 0.4472135954999579 0
          0.8944271909999161 0.4472135954999579 0 0.8944271909999161 0.4472135954999579 0
          0.8944271909999161 0.4472135954999579 0 0.8944271909999161 0.4472135954999579 0
          0.8944271909999161 0.4472135954999579 0 0.970142500145332 0.24253562503633297 0
          0.970142500145332 0.24253562503633297 0 0.970142500145332 0.24253562503633297 0
          0.970142500145332 0.24253562503633297 0 0.970142500145332 0.24253562503633297 0
          0.970142500145332 0.24253562503633297 0
          <InformationKey name="L2_NORM_RANGE" location="vtkDataArray" length="2">
            <Value index="0">
              1
            </Value>
            <Value index="1">
              1
            </Value>
          </InformationKey>
        </DataArray>
      </PointData>
      <CellData>
        <DataArray type="Float64" Name="cross_section_radius" format="ascii" RangeMin="0.1" RangeMax="0.1">
          0.1 0.1 0.1 0.1 0.1 0.1
          0.1 0.1 0.1 0.1 0.1 0.1
          0.1 0.1 0.1 0.1 0.1 0.1
          0.1 0.1 0.1 0.1 0.1 0.1
          0.1 0.1 0.1 0.1 0.1 0.1
          0.1 0.1 0.1 0.1 0.1 0.1
          0.1 0.1 0.1 0.1 0.1
        </DataArray>
      </CellData>
      <Points>
        <DataArray type="Float32" Name="Points" NumberOfComponents="3" format="ascii" RangeMin="0" RangeMax="6.34428877022476">
          0 0 -2 0.5 0 -2
          1 0 -2 0 0 -1
          0.25 0 -1 0.5 0 -1
          0.5 0 -1 0.75 0 -1
          1 0 -1 0 0 0
          0.25 0 0 0.5 0 0
          0.5 0 0 0.75 0 0
          1 0 0 1 0 0
          1 0.25 0 1 0.5 0
          1 0.5 0 1 0.75 0
          1 1 0 1 1 0
          0.75 1 0 0.5 1 0
          0.5 1 0 0.25 1 0
          0 1 0 0 1 0
          0 0.75 0 0 0.5 0
          0 0.5 0 0 0.25 0
          0 0 0 0 0 1
          0 0.25 1 0 0.5 1
          0 0.5 1 0 0.75 1
          0 1 1 0 1 1
          0.125 1.25 1 0.25 1.5 1
          0.25 1.5 1 0.375 1.75 1
          0.5 2 1 0 0 2
          0 0.25 2 0 0.5 2
          0 0.5 2 0 0.75 2
          0 1 2 0.5 2 2
          0.375 1.75 2 0.25 1.5 2
          0.25 1.5 2 0.125 1.25 2
          0 1 2 0 1 3
          0 0.75 3 0 0.5 3
          0 0.5 3 0 0.25 3
          0 0 3 0 1 3
          0.125 1.25 3 0.25 1.5 3
          0.25 1.5 3 0.375 1.75 3
          0.5 2 3 0 1 4
          0 0.75 4 0 0.5 4
          0 0.5 4 0 0.25 4
          0 0 4 0.5 2 4
          0.375 1.75 4 0.25 1.5 4
          0.25 1.5 4 0.125 1.25 4
          0 1 4 0 0 5
          0 0.25 5 0 0.5 5
          0 0.5 5 0 0.75 5
          0 1 5 0 1 5
          0.125 1.25 5 0.25 1.5 5
          0.25 1.5 5 0.375 1.75 5
          0.5 2 5 0 1 5
          -0.125 1.25 5 -0.25 1.5 5
          -0.25 1.5 5 -0.375 1.75 5
          -0.5 2 5 0 0 6
          0 0.25 6 0 0.5 6
          0 0.5 6 0 0.75 6
          0 1 6 0 1 6
          0.125 1.25 6 0.25 1.5 6
          0.25 1.5 6 0.375 1.75 6
          0.5 2 6 0 1 6
          -0.125 1.25 6 -0.25 1.5 6
          -0.25 1.5 6 -0.375 1.75 6
          -0.5 2 6 0 0 6
          -0.125 0.5 6 -0.25 1 6
          -0.25 1 6 -0.375 1.5 6
          -0.5 2 6
          <InformationKey name="L2_NORM_RANGE" location="vtkDataArray" length="2">
            <Value index="0">
              0
            </Value>
            <Value index="1">
              6.3442887702
            </Value>
          </InformationKey>
        </DataArray>
      </Points>
      <Cells>
        <DataArray type="Int64" Name="connectivity" format="ascii" RangeMin="0" RangeMax="122">
          0 1 2 3 4 5
          6 7 8 9 10 11
          12 13 14 15 16 17
          18 19 20 21 22 23
          24 25 26 27 28 29
          30 31 32 33 34 35
          36 37 38 39 40 41
          42 43 44 45 46 47
          48 49 50 51 52 53
          54 55 56 57 58 59
          60 61 62 63 64 65
          66 67 68 69 70 71
          72 73 74 75 76 77
          78 79 80 81 82 83
          84 85 86 87 88 89
          90 91 92 93 94 95
          96 97 98 99 100 101
          102 103 104 105 106 107
          108 109 110 111 112 113
          114 115 116 117 118 119
          120 121 122
        </DataArray>
        <DataArray type="Int64" Name="offsets" format="ascii" RangeMin="3" RangeMax="123">
          3 6 9 12 15 18
          21 24 27 30 33 36
          39 42 45 48 51 54
          57 60 63 66 69 72
          75 78 81 84 87 90
          93 96 99 102 105 108
          111 114 117 120 123
        </DataArray>
        <DataArray type="UInt8" Name="types" format="ascii" RangeMin="4" RangeMax="4">
          4 4 4 4 4 4
          4 4 4 4 4 4
          4 4 4 4 4 4
          4 4 4 4 4 4
          4 4 4 4 4 4
          4 4 4 4 4 4
          4 4 4 4 4
        </DataArray>
      </Cells>
    </Piece>
  </UnstructuredGrid>
</VTKFile>
