<?xml version="1.0" ?> 
<!-- 
# vtk DataFile Version 3.0
-->
<VTKFile type="UnstructuredGrid" version="0.1" compressor="vtkZLibDataCompressor" byte_order="LittleEndian">
  <UnstructuredGrid>
    <FieldData>
      <DataArray type="Float64" Name="TIME" NumberOfTuples="1" format="ascii">
0.000000000000000e+00 
      </DataArray>
    </FieldData>

    <Piece NumberOfPoints="128" NumberOfCells="16" >
      <Points>
        <DataArray type="Float64" NumberOfComponents="3" format="ascii">
-5.000000000000000e-01 -5.000000000000000e-01 2.000000000000000e+00
-5.000000000000000e-01 -5.000000000000000e-01 1.714285714290000e+00
-5.000000000000000e-01 -2.500000000000000e-01 1.714285714290000e+00
-5.000000000000000e-01 -2.500000000000000e-01 2.000000000000000e+00
-2.500000000000000e-01 -5.000000000000000e-01 2.000000000000000e+00
-2.500000000000000e-01 -5.000000000000000e-01 1.714285714290000e+00
-2.500000000000000e-01 -2.500000000000000e-01 1.714285714290000e+00
-2.500000000000000e-01 -2.500000000000000e-01 2.000000000000000e+00
-5.000000000000000e-01 -2.500000000000000e-01 2.000000000000000e+00
-5.000000000000000e-01 -2.500000000000000e-01 1.714285714290000e+00
-5.000000000000000e-01 0.000000000000000e+00 1.714285714290000e+00
-5.000000000000000e-01 0.000000000000000e+00 2.000000000000000e+00
-2.500000000000000e-01 -2.500000000000000e-01 2.000000000000000e+00
-2.500000000000000e-01 -2.500000000000000e-01 1.714285714290000e+00
-2.500000000000000e-01 0.000000000000000e+00 1.714285714290000e+00
-2.500000000000000e-01 0.000000000000000e+00 2.000000000000000e+00
-5.000000000000000e-01 0.000000000000000e+00 2.000000000000000e+00
-5.000000000000000e-01 0.000000000000000e+00 1.714285714290000e+00
-5.000000000000000e-01 2.500000000000000e-01 1.714285714290000e+00
-5.000000000000000e-01 2.500000000000000e-01 2.000000000000000e+00
-2.500000000000000e-01 0.000000000000000e+00 2.000000000000000e+00
-2.500000000000000e-01 0.000000000000000e+00 1.714285714290000e+00
-2.500000000000000e-01 2.500000000000000e-01 1.714285714290000e+00
-2.500000000000000e-01 2.500000000000000e-01 2.000000000000000e+00
-5.000000000000000e-01 2.500000000000000e-01 2.000000000000000e+00
-5.000000000000000e-01 2.500000000000000e-01 1.714285714290000e+00
-5.000000000000000e-01 5.000000000000000e-01 1.714285714290000e+00
-5.000000000000000e-01 5.000000000000000e-01 2.000000000000000e+00
-2.500000000000000e-01 2.500000000000000e-01 2.000000000000000e+00
-2.500000000000000e-01 2.500000000000000e-01 1.714285714290000e+00
-2.500000000000000e-01 5.000000000000000e-01 1.714285714290000e+00
-2.500000000000000e-01 5.000000000000000e-01 2.000000000000000e+00
-2.500000000000000e-01 -5.000000000000000e-01 2.000000000000000e+00
-2.500000000000000e-01 -5.000000000000000e-01 1.714285714290000e+00
-2.500000000000000e-01 -2.500000000000000e-01 1.714285714290000e+00
-2.500000000000000e-01 -2.500000000000000e-01 2.000000000000000e+00
0.000000000000000e+00 -5.000000000000000e-01 2.000000000000000e+00
0.000000000000000e+00 -5.000000000000000e-01 1.714285714290000e+00
0.000000000000000e+00 -2.500000000000000e-01 1.714285714290000e+00
0.000000000000000e+00 -2.500000000000000e-01 2.000000000000000e+00
-2.500000000000000e-01 -2.500000000000000e-01 2.000000000000000e+00
-2.500000000000000e-01 -2.500000000000000e-01 1.714285714290000e+00
-2.500000000000000e-01 0.000000000000000e+00 1.714285714290000e+00
-2.500000000000000e-01 0.000000000000000e+00 2.000000000000000e+00
0.000000000000000e+00 -2.500000000000000e-01 2.000000000000000e+00
0.000000000000000e+00 -2.500000000000000e-01 1.714285714290000e+00
0.000000000000000e+00 0.000000000000000e+00 1.714285714290000e+00
0.000000000000000e+00 0.000000000000000e+00 2.000000000000000e+00
-2.500000000000000e-01 0.000000000000000e+00 2.000000000000000e+00
-2.500000000000000e-01 0.000000000000000e+00 1.714285714290000e+00
-2.500000000000000e-01 2.500000000000000e-01 1.714285714290000e+00
-2.500000000000000e-01 2.500000000000000e-01 2.000000000000000e+00
0.000000000000000e+00 0.000000000000000e+00 2.000000000000000e+00
0.000000000000000e+00 0.000000000000000e+00 1.714285714290000e+00
0.000000000000000e+00 2.500000000000000e-01 1.714285714290000e+00
0.000000000000000e+00 2.500000000000000e-01 2.000000000000000e+00
-2.500000000000000e-01 2.500000000000000e-01 2.000000000000000e+00
-2.500000000000000e-01 2.500000000000000e-01 1.714285714290000e+00
-2.500000000000000e-01 5.000000000000000e-01 1.714285714290000e+00
-2.500000000000000e-01 5.000000000000000e-01 2.000000000000000e+00
0.000000000000000e+00 2.500000000000000e-01 2.000000000000000e+00
0.000000000000000e+00 2.500000000000000e-01 1.714285714290000e+00
0.000000000000000e+00 5.000000000000000e-01 1.714285714290000e+00
0.000000000000000e+00 5.000000000000000e-01 2.000000000000000e+00
0.000000000000000e+00 -5.000000000000000e-01 2.000000000000000e+00
0.000000000000000e+00 -5.000000000000000e-01 1.714285714290000e+00
0.000000000000000e+00 -2.500000000000000e-01 1.714285714290000e+00
0.000000000000000e+00 -2.500000000000000e-01 2.000000000000000e+00
2.500000000000000e-01 -5.000000000000000e-01 2.000000000000000e+00
2.500000000000000e-01 -5.000000000000000e-01 1.714285714290000e+00
2.500000000000000e-01 -2.500000000000000e-01 1.714285714290000e+00
2.500000000000000e-01 -2.500000000000000e-01 2.000000000000000e+00
0.000000000000000e+00 -2.500000000000000e-01 2.000000000000000e+00
0.000000000000000e+00 -2.500000000000000e-01 1.714285714290000e+00
0.000000000000000e+00 0.000000000000000e+00 1.714285714290000e+00
0.000000000000000e+00 0.000000000000000e+00 2.000000000000000e+00
2.500000000000000e-01 -2.500000000000000e-01 2.000000000000000e+00
2.500000000000000e-01 -2.500000000000000e-01 1.714285714290000e+00
2.500000000000000e-01 0.000000000000000e+00 1.714285714290000e+00
2.500000000000000e-01 0.000000000000000e+00 2.000000000000000e+00
0.000000000000000e+00 0.000000000000000e+00 2.000000000000000e+00
0.000000000000000e+00 0.000000000000000e+00 1.714285714290000e+00
0.000000000000000e+00 2.500000000000000e-01 1.714285714290000e+00
0.000000000000000e+00 2.500000000000000e-01 2.000000000000000e+00
2.500000000000000e-01 0.000000000000000e+00 2.000000000000000e+00
2.500000000000000e-01 0.000000000000000e+00 1.714285714290000e+00
2.500000000000000e-01 2.500000000000000e-01 1.714285714290000e+00
2.500000000000000e-01 2.500000000000000e-01 2.000000000000000e+00
0.000000000000000e+00 2.500000000000000e-01 2.000000000000000e+00
0.000000000000000e+00 2.500000000000000e-01 1.714285714290000e+00
0.000000000000000e+00 5.000000000000000e-01 1.714285714290000e+00
0.000000000000000e+00 5.000000000000000e-01 2.000000000000000e+00
2.500000000000000e-01 2.500000000000000e-01 2.000000000000000e+00
2.500000000000000e-01 2.500000000000000e-01 1.714285714290000e+00
2.500000000000000e-01 5.000000000000000e-01 1.714285714290000e+00
2.500000000000000e-01 5.000000000000000e-01 2.000000000000000e+00
2.500000000000000e-01 -5.000000000000000e-01 2.000000000000000e+00
2.500000000000000e-01 -5.000000000000000e-01 1.714285714290000e+00
2.500000000000000e-01 -2.500000000000000e-01 1.714285714290000e+00
2.500000000000000e-01 -2.500000000000000e-01 2.000000000000000e+00
5.000000000000000e-01 -5.000000000000000e-01 2.000000000000000e+00
5.000000000000000e-01 -5.000000000000000e-01 1.714285714290000e+00
5.000000000000000e-01 -2.500000000000000e-01 1.714285714290000e+00
5.000000000000000e-01 -2.500000000000000e-01 2.000000000000000e+00
2.500000000000000e-01 -2.500000000000000e-01 2.000000000000000e+00
2.500000000000000e-01 -2.500000000000000e-01 1.714285714290000e+00
2.500000000000000e-01 0.000000000000000e+00 1.714285714290000e+00
2.500000000000000e-01 0.000000000000000e+00 2.000000000000000e+00
5.000000000000000e-01 -2.500000000000000e-01 2.000000000000000e+00
5.000000000000000e-01 -2.500000000000000e-01 1.714285714290000e+00
5.000000000000000e-01 0.000000000000000e+00 1.714285714290000e+00
5.000000000000000e-01 0.000000000000000e+00 2.000000000000000e+00
2.500000000000000e-01 0.000000000000000e+00 2.000000000000000e+00
2.500000000000000e-01 0.000000000000000e+00 1.714285714290000e+00
2.500000000000000e-01 2.500000000000000e-01 1.714285714290000e+00
2.500000000000000e-01 2.500000000000000e-01 2.000000000000000e+00
5.000000000000000e-01 0.000000000000000e+00 2.000000000000000e+00
5.000000000000000e-01 0.000000000000000e+00 1.714285714290000e+00
5.000000000000000e-01 2.500000000000000e-01 1.714285714290000e+00
5.000000000000000e-01 2.500000000000000e-01 2.000000000000000e+00
2.500000000000000e-01 2.500000000000000e-01 2.000000000000000e+00
2.500000000000000e-01 2.500000000000000e-01 1.714285714290000e+00
2.500000000000000e-01 5.000000000000000e-01 1.714285714290000e+00
2.500000000000000e-01 5.000000000000000e-01 2.000000000000000e+00
5.000000000000000e-01 2.500000000000000e-01 2.000000000000000e+00
5.000000000000000e-01 2.500000000000000e-01 1.714285714290000e+00
5.000000000000000e-01 5.000000000000000e-01 1.714285714290000e+00
5.000000000000000e-01 5.000000000000000e-01 2.000000000000000e+00
        </DataArray>
      </Points>

      <Cells>
        <DataArray type="Int32" Name="connectivity" format="ascii">
0 1 2 3 4 5 6 7 8 9 10 11 12 13 14 15 16 17 18 19 20 21 22 23 24 25 26 27 28 29 30 31 32 33 34 35 36 37 38 39 40 41 42 43 44 45 46 47 48 49 50 51 52 53 54 55 56 57 58 59 60 61 62 63 64 65 66 67 68 69 70 71 72 73 74 75 76 77 78 79 80 81 82 83 84 85 86 87 88 89 90 91 92 93 94 95 96 97 98 99 100 101 102 103 104 105 106 107 108 109 110 111 112 113 114 115 116 117 118 119 120 121 122 123 124 125 126 127 
        </DataArray>
        <DataArray type="Int32" Name="offsets" format="ascii">
8 16 24 32 40 48 56 64 72 80 88 96 104 112 120 128 
        </DataArray>
        <DataArray type="UInt8" Name="types" format="ascii">
12 12 12 12 12 12 12 12 12 12 12 12 12 12 12 12 
        </DataArray>
      </Cells>

  <PointData>
        <DataArray type="Float64" Name="displacement" NumberOfComponents="3" format="ascii">
0.000000000000000e+00 0.000000000000000e+00 0.000000000000000e+00
0.000000000000000e+00 0.000000000000000e+00 0.000000000000000e+00
0.000000000000000e+00 0.000000000000000e+00 0.000000000000000e+00
0.000000000000000e+00 0.000000000000000e+00 0.000000000000000e+00
0.000000000000000e+00 0.000000000000000e+00 0.000000000000000e+00
0.000000000000000e+00 0.000000000000000e+00 0.000000000000000e+00
0.000000000000000e+00 0.000000000000000e+00 0.000000000000000e+00
0.000000000000000e+00 0.000000000000000e+00 0.000000000000000e+00
0.000000000000000e+00 0.000000000000000e+00 0.000000000000000e+00
0.000000000000000e+00 0.000000000000000e+00 0.000000000000000e+00
0.000000000000000e+00 0.000000000000000e+00 0.000000000000000e+00
0.000000000000000e+00 0.000000000000000e+00 0.000000000000000e+00
0.000000000000000e+00 0.000000000000000e+00 0.000000000000000e+00
0.000000000000000e+00 0.000000000000000e+00 0.000000000000000e+00
0.000000000000000e+00 0.000000000000000e+00 0.000000000000000e+00
0.000000000000000e+00 0.000000000000000e+00 0.000000000000000e+00
0.000000000000000e+00 0.000000000000000e+00 0.000000000000000e+00
0.000000000000000e+00 0.000000000000000e+00 0.000000000000000e+00
0.000000000000000e+00 0.000000000000000e+00 0.000000000000000e+00
0.000000000000000e+00 0.000000000000000e+00 0.000000000000000e+00
0.000000000000000e+00 0.000000000000000e+00 0.000000000000000e+00
0.000000000000000e+00 0.000000000000000e+00 0.000000000000000e+00
0.000000000000000e+00 0.000000000000000e+00 0.000000000000000e+00
0.000000000000000e+00 0.000000000000000e+00 0.000000000000000e+00
0.000000000000000e+00 0.000000000000000e+00 0.000000000000000e+00
0.000000000000000e+00 0.000000000000000e+00 0.000000000000000e+00
0.000000000000000e+00 0.000000000000000e+00 0.000000000000000e+00
0.000000000000000e+00 0.000000000000000e+00 0.000000000000000e+00
0.000000000000000e+00 0.000000000000000e+00 0.000000000000000e+00
0.000000000000000e+00 0.000000000000000e+00 0.000000000000000e+00
0.000000000000000e+00 0.000000000000000e+00 0.000000000000000e+00
0.000000000000000e+00 0.000000000000000e+00 0.000000000000000e+00
0.000000000000000e+00 0.000000000000000e+00 0.000000000000000e+00
0.000000000000000e+00 0.000000000000000e+00 0.000000000000000e+00
0.000000000000000e+00 0.000000000000000e+00 0.000000000000000e+00
0.000000000000000e+00 0.000000000000000e+00 0.000000000000000e+00
0.000000000000000e+00 0.000000000000000e+00 0.000000000000000e+00
0.000000000000000e+00 0.000000000000000e+00 0.000000000000000e+00
0.000000000000000e+00 0.000000000000000e+00 0.000000000000000e+00
0.000000000000000e+00 0.000000000000000e+00 0.000000000000000e+00
0.000000000000000e+00 0.000000000000000e+00 0.000000000000000e+00
0.000000000000000e+00 0.000000000000000e+00 0.000000000000000e+00
0.000000000000000e+00 0.000000000000000e+00 0.000000000000000e+00
0.000000000000000e+00 0.000000000000000e+00 0.000000000000000e+00
0.000000000000000e+00 0.000000000000000e+00 0.000000000000000e+00
0.000000000000000e+00 0.000000000000000e+00 0.000000000000000e+00
0.000000000000000e+00 0.000000000000000e+00 0.000000000000000e+00
0.000000000000000e+00 0.000000000000000e+00 0.000000000000000e+00
0.000000000000000e+00 0.000000000000000e+00 0.000000000000000e+00
0.000000000000000e+00 0.000000000000000e+00 0.000000000000000e+00
0.000000000000000e+00 0.000000000000000e+00 0.000000000000000e+00
0.000000000000000e+00 0.000000000000000e+00 0.000000000000000e+00
0.000000000000000e+00 0.000000000000000e+00 0.000000000000000e+00
0.000000000000000e+00 0.000000000000000e+00 0.000000000000000e+00
0.000000000000000e+00 0.000000000000000e+00 0.000000000000000e+00
0.000000000000000e+00 0.000000000000000e+00 0.000000000000000e+00
0.000000000000000e+00 0.000000000000000e+00 0.000000000000000e+00
0.000000000000000e+00 0.000000000000000e+00 0.000000000000000e+00
0.000000000000000e+00 0.000000000000000e+00 0.000000000000000e+00
0.000000000000000e+00 0.000000000000000e+00 0.000000000000000e+00
0.000000000000000e+00 0.000000000000000e+00 0.000000000000000e+00
0.000000000000000e+00 0.000000000000000e+00 0.000000000000000e+00
0.000000000000000e+00 0.000000000000000e+00 0.000000000000000e+00
0.000000000000000e+00 0.000000000000000e+00 0.000000000000000e+00
0.000000000000000e+00 0.000000000000000e+00 0.000000000000000e+00
0.000000000000000e+00 0.000000000000000e+00 0.000000000000000e+00
0.000000000000000e+00 0.000000000000000e+00 0.000000000000000e+00
0.000000000000000e+00 0.000000000000000e+00 0.000000000000000e+00
0.000000000000000e+00 0.000000000000000e+00 0.000000000000000e+00
0.000000000000000e+00 0.000000000000000e+00 0.000000000000000e+00
0.000000000000000e+00 0.000000000000000e+00 0.000000000000000e+00
0.000000000000000e+00 0.000000000000000e+00 0.000000000000000e+00
0.000000000000000e+00 0.000000000000000e+00 0.000000000000000e+00
0.000000000000000e+00 0.000000000000000e+00 0.000000000000000e+00
0.000000000000000e+00 0.000000000000000e+00 0.000000000000000e+00
0.000000000000000e+00 0.000000000000000e+00 0.000000000000000e+00
0.000000000000000e+00 0.000000000000000e+00 0.000000000000000e+00
0.000000000000000e+00 0.000000000000000e+00 0.000000000000000e+00
0.000000000000000e+00 0.000000000000000e+00 0.000000000000000e+00
0.000000000000000e+00 0.000000000000000e+00 0.000000000000000e+00
0.000000000000000e+00 0.000000000000000e+00 0.000000000000000e+00
0.000000000000000e+00 0.000000000000000e+00 0.000000000000000e+00
0.000000000000000e+00 0.000000000000000e+00 0.000000000000000e+00
0.000000000000000e+00 0.000000000000000e+00 0.000000000000000e+00
0.000000000000000e+00 0.000000000000000e+00 0.000000000000000e+00
0.000000000000000e+00 0.000000000000000e+00 0.000000000000000e+00
0.000000000000000e+00 0.000000000000000e+00 0.000000000000000e+00
0.000000000000000e+00 0.000000000000000e+00 0.000000000000000e+00
0.000000000000000e+00 0.000000000000000e+00 0.000000000000000e+00
0.000000000000000e+00 0.000000000000000e+00 0.000000000000000e+00
0.000000000000000e+00 0.000000000000000e+00 0.000000000000000e+00
0.000000000000000e+00 0.000000000000000e+00 0.000000000000000e+00
0.000000000000000e+00 0.000000000000000e+00 0.000000000000000e+00
0.000000000000000e+00 0.000000000000000e+00 0.000000000000000e+00
0.000000000000000e+00 0.000000000000000e+00 0.000000000000000e+00
0.000000000000000e+00 0.000000000000000e+00 0.000000000000000e+00
0.000000000000000e+00 0.000000000000000e+00 0.000000000000000e+00
0.000000000000000e+00 0.000000000000000e+00 0.000000000000000e+00
0.000000000000000e+00 0.000000000000000e+00 0.000000000000000e+00
0.000000000000000e+00 0.000000000000000e+00 0.000000000000000e+00
0.000000000000000e+00 0.000000000000000e+00 0.000000000000000e+00
0.000000000000000e+00 0.000000000000000e+00 0.000000000000000e+00
0.000000000000000e+00 0.000000000000000e+00 0.000000000000000e+00
0.000000000000000e+00 0.000000000000000e+00 0.000000000000000e+00
0.000000000000000e+00 0.000000000000000e+00 0.000000000000000e+00
0.000000000000000e+00 0.000000000000000e+00 0.000000000000000e+00
0.000000000000000e+00 0.000000000000000e+00 0.000000000000000e+00
0.000000000000000e+00 0.000000000000000e+00 0.000000000000000e+00
0.000000000000000e+00 0.000000000000000e+00 0.000000000000000e+00
0.000000000000000e+00 0.000000000000000e+00 0.000000000000000e+00
0.000000000000000e+00 0.000000000000000e+00 0.000000000000000e+00
0.000000000000000e+00 0.000000000000000e+00 0.000000000000000e+00
0.000000000000000e+00 0.000000000000000e+00 0.000000000000000e+00
0.000000000000000e+00 0.000000000000000e+00 0.000000000000000e+00
0.000000000000000e+00 0.000000000000000e+00 0.000000000000000e+00
0.000000000000000e+00 0.000000000000000e+00 0.000000000000000e+00
0.000000000000000e+00 0.000000000000000e+00 0.000000000000000e+00
0.000000000000000e+00 0.000000000000000e+00 0.000000000000000e+00
0.000000000000000e+00 0.000000000000000e+00 0.000000000000000e+00
0.000000000000000e+00 0.000000000000000e+00 0.000000000000000e+00
0.000000000000000e+00 0.000000000000000e+00 0.000000000000000e+00
0.000000000000000e+00 0.000000000000000e+00 0.000000000000000e+00
0.000000000000000e+00 0.000000000000000e+00 0.000000000000000e+00
0.000000000000000e+00 0.000000000000000e+00 0.000000000000000e+00
0.000000000000000e+00 0.000000000000000e+00 0.000000000000000e+00
0.000000000000000e+00 0.000000000000000e+00 0.000000000000000e+00
0.000000000000000e+00 0.000000000000000e+00 0.000000000000000e+00
0.000000000000000e+00 0.000000000000000e+00 0.000000000000000e+00
        </DataArray>
  </PointData>
  <CellData>
        <DataArray type="Float64" Name="element_owner" format="ascii">
2.000000000000000e+00
2.000000000000000e+00
2.000000000000000e+00
2.000000000000000e+00
2.000000000000000e+00
2.000000000000000e+00
2.000000000000000e+00
2.000000000000000e+00
2.000000000000000e+00
2.000000000000000e+00
2.000000000000000e+00
2.000000000000000e+00
2.000000000000000e+00
2.000000000000000e+00
2.000000000000000e+00
2.000000000000000e+00
        </DataArray>
      </CellData>

    </Piece>
  </UnstructuredGrid>
</VTKFile>
