<?xml version="1.0" ?> 
<!-- 
# vtk DataFile Version 3.0
-->
<VTKFile type="UnstructuredGrid" version="0.1" compressor="vtkZLibDataCompressor" byte_order="LittleEndian">
  <UnstructuredGrid>
    <FieldData>
      <DataArray type="Float64" Name="TIME" NumberOfTuples="1" format="ascii">
5.000000000000000e-01 
      </DataArray>
    </FieldData>

    <Piece NumberOfPoints="60" NumberOfCells="10" >
      <Points>
        <DataArray type="Float64" NumberOfComponents="3" format="ascii">
9.482868384666630e-01 5.447475509007359e-01 2.342076817894439e+00
1.045893143839132e+00 5.635934882150874e-01 2.352949949636542e+00
1.143425466976350e+00 5.826883858488606e-01 2.364050188277043e+00
1.240884282791469e+00 6.020275343481704e-01 2.375371631092401e+00
1.338270066197639e+00 6.216062242591313e-01 2.386908375359072e+00
1.435583292108013e+00 6.414197461278580e-01 2.398654518353514e+00
1.435583292108013e+00 6.414197461278580e-01 2.398654518353514e+00
1.532824495334306e+00 6.614634103789979e-01 2.410604182543553e+00
1.629994420289507e+00 6.817326030657954e-01 2.422751587287901e+00
1.727093856288672e+00 7.022227281772612e-01 2.435090975199340e+00
1.824123592646856e+00 7.229291897024058e-01 2.447616588890655e+00
1.921084418679117e+00 7.438473916302395e-01 2.460322670974626e+00
1.921084418679117e+00 7.438473916302395e-01 2.460322670974626e+00
2.017977175508761e+00 7.649727564579694e-01 2.473203487817653e+00
2.114802883761955e+00 7.863007756431729e-01 2.486253395690451e+00
2.211562602008040e+00 8.078269566154159e-01 2.499466772062285e+00
2.308257388816358e+00 8.295468068042640e-01 2.512837994402415e+00
2.404888302756250e+00 8.514558336392830e-01 2.526361440180104e+00
2.404888302756250e+00 8.514558336392830e-01 2.526361440180104e+00
2.501456446761080e+00 8.735495613392684e-01 2.540031508807340e+00
2.597963075511534e+00 8.958235752280105e-01 2.553842681389411e+00
2.694409475197935e+00 9.182734743925683e-01 2.567789457935532e+00
2.790796932010610e+00 9.408948579200010e-01 2.581866338454918e+00
2.887126732139883e+00 9.636833248973671e-01 2.596067822956782e+00
2.887126732139883e+00 9.636833248973671e-01 2.596067822956782e+00
2.983400199277339e+00 9.866344891949694e-01 2.610388431287576e+00
3.079618783175997e+00 1.009744016957499e+00 2.624822755826325e+00
3.175783959118332e+00 1.033007585683597e+00 2.639365405381107e+00
3.271897202386819e+00 1.056420872871905e+00 2.654010988760001e+00
3.367959988263933e+00 1.079979556021063e+00 2.668754114771083e+00
9.482868384666630e-01 5.447475509007359e-01 2.342076817894439e+00
9.175628553005504e-01 7.205373364097597e-01 2.318551190307422e+00
8.875541457667265e-01 8.965226486930236e-01 2.295569505660458e+00
8.583058771729037e-01 1.072709921213147e+00 2.273168942914795e+00
8.298632168267942e-01 1.249105587432749e+00 2.251386681031676e+00
8.022713320361106e-01 1.425716080814451e+00 2.230259898972350e+00
8.022713320361106e-01 1.425716080814451e+00 2.230259898972350e+00
7.755755746691195e-01 1.602547102765202e+00 2.209825617923023e+00
7.498218705725861e-01 1.779600563881758e+00 2.190120120085862e+00
7.250562480219697e-01 1.956877211411445e+00 2.171179475946043e+00
7.013247352927292e-01 2.134377792601587e+00 2.153039755988743e+00
6.786733606603241e-01 2.312103054699511e+00 2.135737030699140e+00
6.786733606603241e-01 2.312103054699511e+00 2.135737030699140e+00
6.571482983787140e-01 2.490052770801088e+00 2.119307184223465e+00
6.367959932182377e-01 2.668222026953961e+00 2.103785144554287e+00
6.176628792289224e-01 2.846604539833110e+00 2.089205547946294e+00
5.997953904607960e-01 3.025194026113514e+00 2.075603030654176e+00
5.832399609638860e-01 3.203984202470153e+00 2.063012228932619e+00
5.832399609638860e-01 3.203984202470153e+00 2.063012228932619e+00
5.680430926140353e-01 3.382967583367335e+00 2.051467535871203e+00
5.542510758306801e-01 3.562131201849571e+00 2.041002047888846e+00
5.419100274792372e-01 3.741460552462139e+00 2.031648456234236e+00
5.310660644251237e-01 3.920941129750319e+00 2.023439452156066e+00
5.217653035337566e-01 4.100558428259391e+00 2.016407726903026e+00
5.217653035337566e-01 4.100558428259391e+00 2.016407726903026e+00
5.140538046850552e-01 4.280296537426135e+00 2.010585639232623e+00
5.079767398721283e-01 4.460133429867714e+00 2.006003781324788e+00
5.035788941301764e-01 4.640045424899981e+00 2.002692194561853e+00
5.009050524944001e-01 4.820008841838793e+00 2.000680920326147e+00
5.000000000000000e-01 5.000000000000000e+00 2.000000000000000e+00
        </DataArray>
      </Points>

      <Cells>
        <DataArray type="Int32" Name="connectivity" format="ascii">
0 1 2 3 4 5 6 7 8 9 10 11 12 13 14 15 16 17 18 19 20 21 22 23 24 25 26 27 28 29 30 31 32 33 34 35 36 37 38 39 40 41 42 43 44 45 46 47 48 49 50 51 52 53 54 55 56 57 58 59 
        </DataArray>
        <DataArray type="Int32" Name="offsets" format="ascii">
6 12 18 24 30 36 42 48 54 60 
        </DataArray>
        <DataArray type="UInt8" Name="types" format="ascii">
4 4 4 4 4 4 4 4 4 4 
        </DataArray>
      </Cells>

  <PointData>
        <DataArray type="Float64" Name="displacement" NumberOfComponents="3" format="ascii">
4.482868384666630e-01 4.474755090073590e-02 3.420768178944389e-01
4.458931438391318e-01 6.359348821508737e-02 3.529499496365416e-01
4.434254669763500e-01 8.268838584886062e-02 3.640501882770435e-01
4.408842827914686e-01 1.020275343481704e-01 3.753716310924013e-01
4.382700661976393e-01 1.216062242591313e-01 3.869083753590719e-01
4.355832921080127e-01 1.414197461278580e-01 3.986545183535135e-01
4.355832921080127e-01 1.414197461278580e-01 3.986545183535135e-01
4.328244953343063e-01 1.614634103789979e-01 4.106041825435529e-01
4.299944202895076e-01 1.817326030657954e-01 4.227515872879009e-01
4.270938562886721e-01 2.022227281772612e-01 4.350909751993401e-01
4.241235926468563e-01 2.229291897024058e-01 4.476165888906549e-01
4.210844186791167e-01 2.438473916302395e-01 4.603226709746262e-01
4.210844186791167e-01 2.438473916302395e-01 4.603226709746262e-01
4.179771755087609e-01 2.649727564579694e-01 4.732034878176528e-01
4.148028837619555e-01 2.863007756431729e-01 4.862533956904511e-01
4.115626020080403e-01 3.078269566154159e-01 4.994667720622847e-01
4.082573888163585e-01 3.295468068042640e-01 5.128379944024153e-01
4.048883027562504e-01 3.514558336392830e-01 5.263614401801044e-01
4.048883027562504e-01 3.514558336392830e-01 5.263614401801044e-01
4.014564467610802e-01 3.735495613392684e-01 5.400315088073397e-01
3.979630755115338e-01 3.958235752280105e-01 5.538426813894111e-01
3.944094751979357e-01 4.182734743925683e-01 5.677894579355325e-01
3.907969320106104e-01 4.408948579200010e-01 5.818663384549181e-01
3.871267321398832e-01 4.636833248973671e-01 5.960678229567824e-01
3.871267321398832e-01 4.636833248973671e-01 5.960678229567824e-01
3.834001992773390e-01 4.866344891949694e-01 6.103884312875758e-01
3.796187831759976e-01 5.097440169574994e-01 6.248227558263251e-01
3.757839591183325e-01 5.330075856835974e-01 6.393654053811071e-01
3.718972023868194e-01 5.564208728719051e-01 6.540109887600010e-01
3.679599882639328e-01 5.799795560210628e-01 6.687541147710832e-01
4.482868384666630e-01 4.474755090073590e-02 3.420768178944389e-01
4.175628553008834e-01 4.053733640975976e-02 3.185511903070886e-01
3.875541457668931e-01 3.652264869302368e-02 2.955695056602918e-01
3.583058771727372e-01 3.270992121314698e-02 2.731689429149613e-01
3.298632168264611e-01 2.910558743274949e-02 2.513866810320096e-01
3.022713320361106e-01 2.571608081445120e-02 2.302598989723497e-01
3.022713320361106e-01 2.571608081445120e-02 2.302598989723497e-01
2.755755746694526e-01 2.254710276520244e-02 2.098256179226903e-01
2.498218705727526e-01 1.960056388175868e-02 1.901201200856955e-01
2.250562480218031e-01 1.687721141144527e-02 1.711794759462095e-01
2.013247352923961e-01 1.437779260158711e-02 1.530397559890764e-01
1.786733606603241e-01 1.210305469951090e-02 1.357370306991403e-01
1.786733606603241e-01 1.210305469951090e-02 1.357370306991403e-01
1.571482983790471e-01 1.005277080108824e-02 1.193071842231315e-01
1.367959932184042e-01 8.222026953962125e-03 1.037851445541200e-01
1.176628792287558e-01 6.604539833110046e-03 8.920554794646085e-02
9.979539046046293e-02 5.194026113513495e-03 7.560303065450880e-02
8.323996096388597e-02 3.984202470152631e-03 6.301222893261871e-02
8.323996096388597e-02 3.984202470152631e-03 6.301222893261871e-02
6.804309261436836e-02 2.967583367335269e-03 5.146753587087005e-02
5.425107583084665e-02 2.131201849570719e-03 4.100204788867901e-02
4.191002747907069e-02 1.460552462138942e-03 3.164845623440282e-02
3.106606442479065e-02 9.411297503190141e-04 2.343945215639920e-02
2.176530353375661e-02 5.584282593913414e-04 1.640772690302628e-02
2.176530353375661e-02 5.584282593913414e-04 1.640772690302628e-02
1.405380468538830e-02 2.965374261352238e-04 1.058563923229006e-02
7.976739872294858e-03 1.334298677138079e-04 6.003781324621649e-03
3.578894130009891e-03 4.542489998105026e-05 2.692194562019523e-03
9.050524940670268e-04 8.841838792683632e-06 6.809203264799280e-04
0.000000000000000e+00 0.000000000000000e+00 0.000000000000000e+00
        </DataArray>
  </PointData>
  <CellData>
        <DataArray type="Float64" Name="cross_section_radius" format="ascii">
1.000000000000000e-01
1.000000000000000e-01
1.000000000000000e-01
1.000000000000000e-01
1.000000000000000e-01
1.000000000000000e-01
1.000000000000000e-01
1.000000000000000e-01
1.000000000000000e-01
1.000000000000000e-01
        </DataArray>
        <DataArray type="Float64" Name="element_owner" format="ascii">
0.000000000000000e+00
0.000000000000000e+00
0.000000000000000e+00
0.000000000000000e+00
0.000000000000000e+00
0.000000000000000e+00
0.000000000000000e+00
0.000000000000000e+00
0.000000000000000e+00
0.000000000000000e+00
        </DataArray>
      </CellData>

    </Piece>
  </UnstructuredGrid>
</VTKFile>
