<?xml version="1.0" ?> 
<!-- 
# vtk DataFile Version 3.0
-->
<VTKFile type="UnstructuredGrid" version="0.1" compressor="vtkZLibDataCompressor" byte_order="LittleEndian">
  <UnstructuredGrid>
    <FieldData>
      <DataArray type="Float64" Name="TIME" NumberOfTuples="1" format="ascii">
0.000000000000000e+00 
      </DataArray>
    </FieldData>

    <Piece NumberOfPoints="60" NumberOfCells="10" >
      <Points>
        <DataArray type="Float64" NumberOfComponents="3" format="ascii">
5.000000000000000e-01 5.000000000000000e-01 2.000000000000000e+00
6.000000000000001e-01 5.000000000000000e-01 2.000000000000000e+00
7.000000000000000e-01 5.000000000000000e-01 2.000000000000000e+00
7.999999999999999e-01 5.000000000000000e-01 2.000000000000000e+00
8.999999999999999e-01 5.000000000000000e-01 2.000000000000000e+00
1.000000000000000e+00 5.000000000000000e-01 2.000000000000000e+00
1.000000000000000e+00 5.000000000000000e-01 2.000000000000000e+00
1.100000000000000e+00 5.000000000000000e-01 2.000000000000000e+00
1.200000000000000e+00 5.000000000000000e-01 2.000000000000000e+00
1.300000000000000e+00 5.000000000000000e-01 2.000000000000000e+00
1.400000000000000e+00 5.000000000000000e-01 2.000000000000000e+00
1.500000000000000e+00 5.000000000000000e-01 2.000000000000000e+00
1.500000000000000e+00 5.000000000000000e-01 2.000000000000000e+00
1.600000000000000e+00 5.000000000000000e-01 2.000000000000000e+00
1.700000000000000e+00 5.000000000000000e-01 2.000000000000000e+00
1.800000000000000e+00 5.000000000000000e-01 2.000000000000000e+00
1.900000000000000e+00 5.000000000000000e-01 2.000000000000000e+00
2.000000000000000e+00 5.000000000000000e-01 2.000000000000000e+00
2.000000000000000e+00 5.000000000000000e-01 2.000000000000000e+00
2.100000000000000e+00 5.000000000000000e-01 2.000000000000000e+00
2.200000000000000e+00 5.000000000000000e-01 2.000000000000000e+00
2.300000000000000e+00 5.000000000000000e-01 2.000000000000000e+00
2.400000000000000e+00 5.000000000000000e-01 2.000000000000000e+00
2.500000000000000e+00 5.000000000000000e-01 2.000000000000000e+00
2.500000000000000e+00 5.000000000000000e-01 2.000000000000000e+00
2.600000000000000e+00 5.000000000000000e-01 2.000000000000000e+00
2.700000000000000e+00 5.000000000000000e-01 2.000000000000000e+00
2.800000000000000e+00 5.000000000000000e-01 2.000000000000000e+00
2.900000000000000e+00 5.000000000000000e-01 2.000000000000000e+00
3.000000000000000e+00 5.000000000000000e-01 2.000000000000000e+00
5.000000000000000e-01 5.000000000000000e-01 2.000000000000000e+00
4.999999999996669e-01 6.799999999999999e-01 2.000000000000333e+00
4.999999999998335e-01 8.599999999999999e-01 2.000000000000167e+00
5.000000000001665e-01 1.040000000000000e+00 1.999999999999833e+00
5.000000000003331e-01 1.220000000000000e+00 1.999999999999667e+00
5.000000000000000e-01 1.400000000000000e+00 2.000000000000000e+00
5.000000000000000e-01 1.400000000000000e+00 2.000000000000000e+00
4.999999999996669e-01 1.580000000000000e+00 2.000000000000333e+00
4.999999999998335e-01 1.760000000000000e+00 2.000000000000167e+00
5.000000000001665e-01 1.940000000000000e+00 1.999999999999833e+00
5.000000000003331e-01 2.120000000000000e+00 1.999999999999667e+00
5.000000000000000e-01 2.300000000000000e+00 2.000000000000000e+00
5.000000000000000e-01 2.300000000000000e+00 2.000000000000000e+00
4.999999999996669e-01 2.480000000000000e+00 2.000000000000333e+00
4.999999999998335e-01 2.659999999999999e+00 2.000000000000167e+00
5.000000000001665e-01 2.840000000000000e+00 1.999999999999833e+00
5.000000000003331e-01 3.020000000000000e+00 1.999999999999667e+00
5.000000000000000e-01 3.200000000000000e+00 2.000000000000000e+00
5.000000000000000e-01 3.200000000000000e+00 2.000000000000000e+00
4.999999999996669e-01 3.380000000000000e+00 2.000000000000333e+00
4.999999999998335e-01 3.560000000000000e+00 2.000000000000167e+00
5.000000000001665e-01 3.740000000000000e+00 1.999999999999833e+00
5.000000000003331e-01 3.920000000000000e+00 1.999999999999667e+00
5.000000000000000e-01 4.100000000000000e+00 2.000000000000000e+00
5.000000000000000e-01 4.100000000000000e+00 2.000000000000000e+00
4.999999999996669e-01 4.279999999999999e+00 2.000000000000333e+00
4.999999999998335e-01 4.460000000000000e+00 2.000000000000167e+00
5.000000000001665e-01 4.640000000000000e+00 1.999999999999833e+00
5.000000000003331e-01 4.820000000000000e+00 1.999999999999667e+00
5.000000000000000e-01 5.000000000000000e+00 2.000000000000000e+00
        </DataArray>
      </Points>

      <Cells>
        <DataArray type="Int32" Name="connectivity" format="ascii">
0 1 2 3 4 5 6 7 8 9 10 11 12 13 14 15 16 17 18 19 20 21 22 23 24 25 26 27 28 29 30 31 32 33 34 35 36 37 38 39 40 41 42 43 44 45 46 47 48 49 50 51 52 53 54 55 56 57 58 59 
        </DataArray>
        <DataArray type="Int32" Name="offsets" format="ascii">
6 12 18 24 30 36 42 48 54 60 
        </DataArray>
        <DataArray type="UInt8" Name="types" format="ascii">
4 4 4 4 4 4 4 4 4 4 
        </DataArray>
      </Cells>

  <PointData>
        <DataArray type="Float64" Name="displacement" NumberOfComponents="3" format="ascii">
0.000000000000000e+00 0.000000000000000e+00 0.000000000000000e+00
0.000000000000000e+00 0.000000000000000e+00 0.000000000000000e+00
0.000000000000000e+00 0.000000000000000e+00 0.000000000000000e+00
0.000000000000000e+00 0.000000000000000e+00 0.000000000000000e+00
0.000000000000000e+00 0.000000000000000e+00 0.000000000000000e+00
0.000000000000000e+00 0.000000000000000e+00 0.000000000000000e+00
0.000000000000000e+00 0.000000000000000e+00 0.000000000000000e+00
0.000000000000000e+00 0.000000000000000e+00 0.000000000000000e+00
0.000000000000000e+00 0.000000000000000e+00 0.000000000000000e+00
0.000000000000000e+00 0.000000000000000e+00 0.000000000000000e+00
0.000000000000000e+00 0.000000000000000e+00 0.000000000000000e+00
0.000000000000000e+00 0.000000000000000e+00 0.000000000000000e+00
0.000000000000000e+00 0.000000000000000e+00 0.000000000000000e+00
0.000000000000000e+00 0.000000000000000e+00 0.000000000000000e+00
0.000000000000000e+00 0.000000000000000e+00 0.000000000000000e+00
0.000000000000000e+00 0.000000000000000e+00 0.000000000000000e+00
0.000000000000000e+00 0.000000000000000e+00 0.000000000000000e+00
0.000000000000000e+00 0.000000000000000e+00 0.000000000000000e+00
0.000000000000000e+00 0.000000000000000e+00 0.000000000000000e+00
0.000000000000000e+00 0.000000000000000e+00 0.000000000000000e+00
0.000000000000000e+00 0.000000000000000e+00 0.000000000000000e+00
0.000000000000000e+00 0.000000000000000e+00 0.000000000000000e+00
0.000000000000000e+00 0.000000000000000e+00 0.000000000000000e+00
0.000000000000000e+00 0.000000000000000e+00 0.000000000000000e+00
0.000000000000000e+00 0.000000000000000e+00 0.000000000000000e+00
0.000000000000000e+00 0.000000000000000e+00 0.000000000000000e+00
0.000000000000000e+00 0.000000000000000e+00 0.000000000000000e+00
0.000000000000000e+00 0.000000000000000e+00 0.000000000000000e+00
0.000000000000000e+00 0.000000000000000e+00 0.000000000000000e+00
0.000000000000000e+00 0.000000000000000e+00 0.000000000000000e+00
0.000000000000000e+00 0.000000000000000e+00 0.000000000000000e+00
0.000000000000000e+00 0.000000000000000e+00 0.000000000000000e+00
0.000000000000000e+00 0.000000000000000e+00 0.000000000000000e+00
0.000000000000000e+00 0.000000000000000e+00 0.000000000000000e+00
0.000000000000000e+00 0.000000000000000e+00 0.000000000000000e+00
0.000000000000000e+00 0.000000000000000e+00 0.000000000000000e+00
0.000000000000000e+00 0.000000000000000e+00 0.000000000000000e+00
0.000000000000000e+00 0.000000000000000e+00 0.000000000000000e+00
0.000000000000000e+00 0.000000000000000e+00 0.000000000000000e+00
0.000000000000000e+00 0.000000000000000e+00 0.000000000000000e+00
0.000000000000000e+00 0.000000000000000e+00 0.000000000000000e+00
0.000000000000000e+00 0.000000000000000e+00 0.000000000000000e+00
0.000000000000000e+00 0.000000000000000e+00 0.000000000000000e+00
0.000000000000000e+00 0.000000000000000e+00 0.000000000000000e+00
0.000000000000000e+00 0.000000000000000e+00 0.000000000000000e+00
0.000000000000000e+00 0.000000000000000e+00 0.000000000000000e+00
0.000000000000000e+00 0.000000000000000e+00 0.000000000000000e+00
0.000000000000000e+00 0.000000000000000e+00 0.000000000000000e+00
0.000000000000000e+00 0.000000000000000e+00 0.000000000000000e+00
0.000000000000000e+00 0.000000000000000e+00 0.000000000000000e+00
0.000000000000000e+00 0.000000000000000e+00 0.000000000000000e+00
0.000000000000000e+00 0.000000000000000e+00 0.000000000000000e+00
0.000000000000000e+00 0.000000000000000e+00 0.000000000000000e+00
0.000000000000000e+00 0.000000000000000e+00 0.000000000000000e+00
0.000000000000000e+00 0.000000000000000e+00 0.000000000000000e+00
0.000000000000000e+00 0.000000000000000e+00 0.000000000000000e+00
0.000000000000000e+00 0.000000000000000e+00 0.000000000000000e+00
0.000000000000000e+00 0.000000000000000e+00 0.000000000000000e+00
0.000000000000000e+00 0.000000000000000e+00 0.000000000000000e+00
0.000000000000000e+00 0.000000000000000e+00 0.000000000000000e+00
        </DataArray>
  </PointData>
  <CellData>
        <DataArray type="Float64" Name="cross_section_radius" format="ascii">
1.000000000000000e-01
1.000000000000000e-01
1.000000000000000e-01
1.000000000000000e-01
1.000000000000000e-01
1.000000000000000e-01
1.000000000000000e-01
1.000000000000000e-01
1.000000000000000e-01
1.000000000000000e-01
        </DataArray>
        <DataArray type="Float64" Name="element_owner" format="ascii">
0.000000000000000e+00
0.000000000000000e+00
0.000000000000000e+00
0.000000000000000e+00
0.000000000000000e+00
0.000000000000000e+00
0.000000000000000e+00
0.000000000000000e+00
0.000000000000000e+00
0.000000000000000e+00
        </DataArray>
      </CellData>

    </Piece>
  </UnstructuredGrid>
</VTKFile>
