<?xml version="1.0" ?> 
<!-- 
# vtk DataFile Version 3.0
-->
<VTKFile type="UnstructuredGrid" version="0.1" compressor="vtkZLibDataCompressor" byte_order="LittleEndian">
  <UnstructuredGrid>
    <FieldData>
      <DataArray type="Float64" Name="TIME" NumberOfTuples="1" format="ascii">
1.000000000000000e+00 
      </DataArray>
    </FieldData>

    <Piece NumberOfPoints="60" NumberOfCells="10" >
      <Points>
        <DataArray type="Float64" NumberOfComponents="3" format="ascii">
1.228097757969286e+00 6.166652990143313e-01 2.549960586810679e+00
1.322380995365130e+00 6.466666921826713e-01 2.564501227301642e+00
1.416518414044495e+00 6.769712759268814e-01 2.579354499262858e+00
1.510512119118543e+00 7.075715814535286e-01 2.594509637351789e+00
1.604364215698436e+00 7.384601399691794e-01 2.609955876225896e+00
1.698076808895335e+00 7.696294826804005e-01 2.625682450542643e+00
1.698076808895335e+00 7.696294826804005e-01 2.625682450542643e+00
1.791652131435019e+00 8.010722131943582e-01 2.641678665761992e+00
1.885092836533162e+00 8.327811980748085e-01 2.657934089849000e+00
1.978401660035772e+00 8.647493629632033e-01 2.674438351218766e+00
2.071581337788856e+00 8.969696335009945e-01 2.691181078286391e+00
2.164634605638421e+00 9.294349353296336e-01 2.708151899466971e+00
2.164634605638421e+00 9.294349353296336e-01 2.708151899466971e+00
2.257564302727631e+00 9.621382580753317e-01 2.725340506667756e+00
2.350373602537716e+00 9.950728181821560e-01 2.742736820896425e+00
2.443065742421776e+00 1.028231881518342e+00 2.760330814218724e+00
2.535643959732914e+00 1.061608713952126e+00 2.778112458700395e+00
2.628111491824230e+00 1.095196581351745e+00 2.796071726407185e+00
2.628111491824230e+00 1.095196581351745e+00 2.796071726407185e+00
2.720471658270740e+00 1.128988804418725e+00 2.814198644297973e+00
2.812728037912263e+00 1.162978892314459e+00 2.832483431200219e+00
2.904884256999101e+00 1.197160393596977e+00 2.850916346982529e+00
2.996943941781559e+00 1.231526856824310e+00 2.869487651513514e+00
3.088910718509940e+00 1.266071830554488e+00 2.888187604661780e+00
3.088910718509940e+00 1.266071830554488e+00 2.888187604661780e+00
3.180788277302921e+00 1.300788908519309e+00 2.907006511698617e+00
3.272580501493798e+00 1.335671832992209e+00 2.925934829987808e+00
3.364291307154797e+00 1.370714375343675e+00 2.944963047536699e+00
3.455924610358147e+00 1.405910306944193e+00 2.964081652352637e+00
3.547484327176075e+00 1.441253399164251e+00 2.983281132442972e+00
1.228097757969286e+00 6.166652990143313e-01 2.549960586810679e+00
1.180422783209436e+00 7.863796709533601e-01 2.513578501737141e+00
1.133564261467705e+00 9.564555349649524e-01 2.477827574626771e+00
1.087613723587525e+00 1.126923507594914e+00 2.442783956143763e+00
1.042662700412325e+00 1.297814205389051e+00 2.408523796952313e+00
9.988027227855376e-01 1.469158244893169e+00 2.375123247716616e+00
9.988027227855376e-01 1.469158244893169e+00 2.375123247716616e+00
9.561261454447290e-01 1.640984549535622e+00 2.342658173226280e+00
9.147284576551818e-01 1.813311381935141e+00 2.311203209623293e+00
8.747058920518973e-01 1.986153367423102e+00 2.280832664600424e+00
8.361546812698766e-01 2.159525131330881e+00 2.251620845850436e+00
7.991710579441209e-01 2.333441298989852e+00 2.223642061066096e+00
7.991710579441209e-01 2.333441298989852e+00 2.223642061066096e+00
7.638521083090392e-01 2.507913718273444e+00 2.196970349268912e+00
7.302972096085718e-01 2.682939456313909e+00 2.171677911974407e+00
6.986060309920173e-01 2.858510967330855e+00 2.147836300616365e+00
6.688782416086736e-01 3.034620705543894e+00 2.125517066628568e+00
6.412135106078395e-01 3.211261125172633e+00 2.104791761444802e+00
6.412135106078395e-01 3.211261125172633e+00 2.104791761444802e+00
6.157121455215749e-01 3.388420827175327e+00 2.085731504141058e+00
5.924746878577057e-01 3.566069938870980e+00 2.068404122029475e+00
5.716011577291784e-01 3.744173204020326e+00 2.052876228898053e+00
5.531915752489396e-01 3.922695366384099e+00 2.039214438534799e+00
5.373459605299356e-01 4.101601169723030e+00 2.027485364727713e+00
5.373459605299356e-01 4.101601169723030e+00 2.027485364727713e+00
5.241644279874055e-01 4.280850522722231e+00 2.017754793263744e+00
5.137438734420333e-01 4.460382135835603e+00 2.010082848866298e+00
5.061794891149326e-01 4.640128955477074e+00 2.004527653728065e+00
5.015664672272170e-01 4.820023928060565e+00 2.001147330041736e+00
5.000000000000000e-01 5.000000000000000e+00 2.000000000000000e+00
        </DataArray>
      </Points>

      <Cells>
        <DataArray type="Int32" Name="connectivity" format="ascii">
0 1 2 3 4 5 6 7 8 9 10 11 12 13 14 15 16 17 18 19 20 21 22 23 24 25 26 27 28 29 30 31 32 33 34 35 36 37 38 39 40 41 42 43 44 45 46 47 48 49 50 51 52 53 54 55 56 57 58 59 
        </DataArray>
        <DataArray type="Int32" Name="offsets" format="ascii">
6 12 18 24 30 36 42 48 54 60 
        </DataArray>
        <DataArray type="UInt8" Name="types" format="ascii">
4 4 4 4 4 4 4 4 4 4 
        </DataArray>
      </Cells>

  <PointData>
        <DataArray type="Float64" Name="displacement" NumberOfComponents="3" format="ascii">
7.280977579692860e-01 1.166652990143313e-01 5.499605868106787e-01
7.223809953651301e-01 1.466666921826713e-01 5.645012273016419e-01
7.165184140444951e-01 1.769712759268814e-01 5.793544992628581e-01
7.105121191185434e-01 2.075715814535286e-01 5.945096373517886e-01
7.043642156984360e-01 2.384601399691794e-01 6.099558762258961e-01
6.980768088953349e-01 2.696294826804005e-01 6.256824505426426e-01
6.980768088953349e-01 2.696294826804005e-01 6.256824505426426e-01
6.916521314350186e-01 3.010722131943582e-01 6.416786657619920e-01
6.850928365331623e-01 3.327811980748085e-01 6.579340898490003e-01
6.784016600357725e-01 3.647493629632033e-01 6.744383512187664e-01
6.715813377888562e-01 3.969696335009945e-01 6.911810782863905e-01
6.646346056384207e-01 4.294349353296336e-01 7.081518994669707e-01
6.646346056384207e-01 4.294349353296336e-01 7.081518994669707e-01
6.575643027276308e-01 4.621382580753317e-01 7.253405066677558e-01
6.503736025377158e-01 4.950728181821560e-01 7.427368208964253e-01
6.430657424217761e-01 5.282318815183422e-01 7.603308142187237e-01
6.356439597329140e-01 5.616087139521264e-01 7.781124587003951e-01
6.281114918242299e-01 5.951965813517446e-01 7.960717264071846e-01
6.281114918242299e-01 5.951965813517446e-01 7.960717264071846e-01
6.204716582707399e-01 6.289888044187246e-01 8.141986442979730e-01
6.127280379122628e-01 6.629788923144588e-01 8.324834312002185e-01
6.048842569991013e-01 6.971603935969770e-01 8.509163469825292e-01
5.969439417815594e-01 7.315268568243101e-01 8.694876515135137e-01
5.889107185099398e-01 7.660718305544878e-01 8.881876046617800e-01
5.889107185099398e-01 7.660718305544878e-01 8.881876046617800e-01
5.807882773029207e-01 8.007889085193087e-01 9.070065116986172e-01
5.725805014937979e-01 8.356718329922088e-01 9.259348299878076e-01
5.642913071547970e-01 8.707143753436746e-01 9.449630475366986e-01
5.559246103581468e-01 9.059103069441932e-01 9.640816523526374e-01
5.474843271760754e-01 9.412533991642507e-01 9.832811324429720e-01
7.280977579692860e-01 1.166652990143313e-01 5.499605868106787e-01
6.804227832097689e-01 1.063796709533602e-01 5.135785017368075e-01
6.335642614678716e-01 9.645553496495252e-02 4.778275746266041e-01
5.876137235873584e-01 8.692350759491441e-02 4.427839561439297e-01
5.426627004119924e-01 7.781420538905137e-02 4.085237969526463e-01
4.988027227855376e-01 6.915824489316957e-02 3.751232477166160e-01
4.988027227855376e-01 6.915824489316957e-02 3.751232477166160e-01
4.561261454450620e-01 6.098454953562182e-02 3.426581732259466e-01
4.147284576553484e-01 5.331138193514140e-02 3.112032096231268e-01
3.747058920517308e-01 4.615336742310294e-02 2.808326646005903e-01
3.361546812695435e-01 3.952513133088154e-02 2.516208458507689e-01
2.991710579441209e-01 3.344129898985226e-02 2.236420610660956e-01
2.991710579441209e-01 3.344129898985226e-02 2.236420610660956e-01
2.638521083093722e-01 2.791371827344413e-02 1.969703492685788e-01
2.302972096087383e-01 2.293945631390937e-02 1.716779119742400e-01
1.986060309918508e-01 1.851096733085544e-02 1.478363006165311e-01
1.688782416083405e-01 1.462070554389383e-02 1.255170666289014e-01
1.412135106078395e-01 1.126112517263289e-02 1.047917614448024e-01
1.412135106078395e-01 1.126112517263289e-02 1.047917614448024e-01
1.157121455219080e-01 8.420827175327439e-03 8.573150414072517e-02
9.247468785787227e-02 6.069938870980174e-03 6.840412202930812e-02
7.160115772901188e-02 4.173204020326171e-03 5.287622889821986e-02
5.319157524860652e-02 2.695366384098730e-03 3.921443853513207e-02
3.734596052993555e-02 1.601169723030260e-03 2.748536472771335e-02
3.734596052993555e-02 1.601169723030260e-03 2.748536472771335e-02
2.416442798773855e-02 8.505227222315170e-04 1.775479326341101e-02
1.374387344219985e-02 3.821358356033144e-04 1.008284886613176e-02
6.179489114766068e-03 1.289554770744772e-04 4.527653728231495e-03
1.566467226883916e-03 2.392806056494834e-05 1.147330042068795e-03
0.000000000000000e+00 0.000000000000000e+00 0.000000000000000e+00
        </DataArray>
  </PointData>
  <CellData>
        <DataArray type="Float64" Name="cross_section_radius" format="ascii">
1.000000000000000e-01
1.000000000000000e-01
1.000000000000000e-01
1.000000000000000e-01
1.000000000000000e-01
1.000000000000000e-01
1.000000000000000e-01
1.000000000000000e-01
1.000000000000000e-01
1.000000000000000e-01
        </DataArray>
        <DataArray type="Float64" Name="element_owner" format="ascii">
0.000000000000000e+00
0.000000000000000e+00
0.000000000000000e+00
0.000000000000000e+00
0.000000000000000e+00
0.000000000000000e+00
0.000000000000000e+00
0.000000000000000e+00
0.000000000000000e+00
0.000000000000000e+00
        </DataArray>
      </CellData>

    </Piece>
  </UnstructuredGrid>
</VTKFile>
