<?xml version="1.0" ?> 
<!-- 
# vtk DataFile Version 3.0
-->
<VTKFile type="UnstructuredGrid" version="0.1" compressor="vtkZLibDataCompressor" byte_order="LittleEndian">
  <UnstructuredGrid>
    <FieldData>
      <DataArray type="Float64" Name="TIME" NumberOfTuples="1" format="ascii">
1.000000000000000e+00 
      </DataArray>
    </FieldData>

    <Piece NumberOfPoints="416" NumberOfCells="52" >
      <Points>
        <DataArray type="Float64" NumberOfComponents="3" format="ascii">
0.000000000000000e+00 5.000000000000000e+00 -5.000000000000000e-01
0.000000000000000e+00 5.000000000000000e+00 0.000000000000000e+00
0.000000000000000e+00 4.444444444440000e+00 0.000000000000000e+00
0.000000000000000e+00 4.444444444440000e+00 -5.000000000000000e-01
5.000000000000000e-01 5.000000000000000e+00 -5.000000000000000e-01
5.000000000000000e-01 5.000000000000000e+00 0.000000000000000e+00
5.000000000000000e-01 4.436507936510000e+00 0.000000000000000e+00
5.000000000000000e-01 4.436507936510000e+00 -5.000000000000000e-01
0.000000000000000e+00 5.000000000000000e+00 0.000000000000000e+00
0.000000000000000e+00 5.000000000000000e+00 5.000000000000000e-01
0.000000000000000e+00 4.444444444440000e+00 5.000000000000000e-01
0.000000000000000e+00 4.444444444440000e+00 0.000000000000000e+00
5.000000000000000e-01 5.000000000000000e+00 0.000000000000000e+00
5.000000000000000e-01 5.000000000000000e+00 5.000000000000000e-01
5.000000000000000e-01 4.436507936510000e+00 5.000000000000000e-01
5.000000000000000e-01 4.436507936510000e+00 0.000000000000000e+00
0.000000000000000e+00 4.444444444440000e+00 -5.000000000000000e-01
0.000000000000000e+00 4.444444444440000e+00 0.000000000000000e+00
0.000000000000000e+00 3.888888888890000e+00 0.000000000000000e+00
0.000000000000000e+00 3.888888888890000e+00 -5.000000000000000e-01
5.000000000000000e-01 4.436507936510000e+00 -5.000000000000000e-01
5.000000000000000e-01 4.436507936510000e+00 0.000000000000000e+00
5.000000000000000e-01 3.873015873020000e+00 0.000000000000000e+00
5.000000000000000e-01 3.873015873020000e+00 -5.000000000000000e-01
0.000000000000000e+00 4.444444444440000e+00 0.000000000000000e+00
0.000000000000000e+00 4.444444444440000e+00 5.000000000000000e-01
0.000000000000000e+00 3.888888888890000e+00 5.000000000000000e-01
0.000000000000000e+00 3.888888888890000e+00 0.000000000000000e+00
5.000000000000000e-01 4.436507936510000e+00 0.000000000000000e+00
5.000000000000000e-01 4.436507936510000e+00 5.000000000000000e-01
5.000000000000000e-01 3.873015873020000e+00 5.000000000000000e-01
5.000000000000000e-01 3.873015873020000e+00 0.000000000000000e+00
0.000000000000000e+00 3.888888888890000e+00 -5.000000000000000e-01
0.000000000000000e+00 3.888888888890000e+00 0.000000000000000e+00
0.000000000000000e+00 3.333333333330000e+00 0.000000000000000e+00
0.000000000000000e+00 3.333333333330000e+00 -5.000000000000000e-01
5.000000000000000e-01 3.873015873020000e+00 -5.000000000000000e-01
5.000000000000000e-01 3.873015873020000e+00 0.000000000000000e+00
5.000000000000000e-01 3.309523809520000e+00 0.000000000000000e+00
5.000000000000000e-01 3.309523809520000e+00 -5.000000000000000e-01
0.000000000000000e+00 3.888888888890000e+00 0.000000000000000e+00
0.000000000000000e+00 3.888888888890000e+00 5.000000000000000e-01
0.000000000000000e+00 3.333333333330000e+00 5.000000000000000e-01
0.000000000000000e+00 3.333333333330000e+00 0.000000000000000e+00
5.000000000000000e-01 3.873015873020000e+00 0.000000000000000e+00
5.000000000000000e-01 3.873015873020000e+00 5.000000000000000e-01
5.000000000000000e-01 3.309523809520000e+00 5.000000000000000e-01
5.000000000000000e-01 3.309523809520000e+00 0.000000000000000e+00
0.000000000000000e+00 3.333333333330000e+00 -5.000000000000000e-01
0.000000000000000e+00 3.333333333330000e+00 0.000000000000000e+00
0.000000000000000e+00 2.777777777780000e+00 0.000000000000000e+00
0.000000000000000e+00 2.777777777780000e+00 -5.000000000000000e-01
5.000000000000000e-01 3.309523809520000e+00 -5.000000000000000e-01
5.000000000000000e-01 3.309523809520000e+00 0.000000000000000e+00
5.000000000000000e-01 2.746031746030000e+00 0.000000000000000e+00
5.000000000000000e-01 2.746031746030000e+00 -5.000000000000000e-01
0.000000000000000e+00 3.333333333330000e+00 0.000000000000000e+00
0.000000000000000e+00 3.333333333330000e+00 5.000000000000000e-01
0.000000000000000e+00 2.777777777780000e+00 5.000000000000000e-01
0.000000000000000e+00 2.777777777780000e+00 0.000000000000000e+00
5.000000000000000e-01 3.309523809520000e+00 0.000000000000000e+00
5.000000000000000e-01 3.309523809520000e+00 5.000000000000000e-01
5.000000000000000e-01 2.746031746030000e+00 5.000000000000000e-01
5.000000000000000e-01 2.746031746030000e+00 0.000000000000000e+00
0.000000000000000e+00 2.777777777780000e+00 -5.000000000000000e-01
0.000000000000000e+00 2.777777777780000e+00 0.000000000000000e+00
0.000000000000000e+00 2.222222222220000e+00 0.000000000000000e+00
0.000000000000000e+00 2.222222222220000e+00 -5.000000000000000e-01
5.000000000000000e-01 2.746031746030000e+00 -5.000000000000000e-01
5.000000000000000e-01 2.746031746030000e+00 0.000000000000000e+00
5.000000000000000e-01 2.182539682540000e+00 0.000000000000000e+00
5.000000000000000e-01 2.182539682540000e+00 -5.000000000000000e-01
0.000000000000000e+00 2.777777777780000e+00 0.000000000000000e+00
0.000000000000000e+00 2.777777777780000e+00 5.000000000000000e-01
0.000000000000000e+00 2.222222222220000e+00 5.000000000000000e-01
0.000000000000000e+00 2.222222222220000e+00 0.000000000000000e+00
5.000000000000000e-01 2.746031746030000e+00 0.000000000000000e+00
5.000000000000000e-01 2.746031746030000e+00 5.000000000000000e-01
5.000000000000000e-01 2.182539682540000e+00 5.000000000000000e-01
5.000000000000000e-01 2.182539682540000e+00 0.000000000000000e+00
0.000000000000000e+00 2.222222222220000e+00 -5.000000000000000e-01
0.000000000000000e+00 2.222222222220000e+00 0.000000000000000e+00
0.000000000000000e+00 1.666666666670000e+00 0.000000000000000e+00
0.000000000000000e+00 1.666666666670000e+00 -5.000000000000000e-01
5.000000000000000e-01 2.182539682540000e+00 -5.000000000000000e-01
5.000000000000000e-01 2.182539682540000e+00 0.000000000000000e+00
5.000000000000000e-01 1.619047619050000e+00 0.000000000000000e+00
5.000000000000000e-01 1.619047619050000e+00 -5.000000000000000e-01
0.000000000000000e+00 2.222222222220000e+00 0.000000000000000e+00
0.000000000000000e+00 2.222222222220000e+00 5.000000000000000e-01
0.000000000000000e+00 1.666666666670000e+00 5.000000000000000e-01
0.000000000000000e+00 1.666666666670000e+00 0.000000000000000e+00
5.000000000000000e-01 2.182539682540000e+00 0.000000000000000e+00
5.000000000000000e-01 2.182539682540000e+00 5.000000000000000e-01
5.000000000000000e-01 1.619047619050000e+00 5.000000000000000e-01
5.000000000000000e-01 1.619047619050000e+00 0.000000000000000e+00
0.000000000000000e+00 1.666666666670000e+00 -5.000000000000000e-01
0.000000000000000e+00 1.666666666670000e+00 0.000000000000000e+00
0.000000000000000e+00 1.111111111110000e+00 0.000000000000000e+00
0.000000000000000e+00 1.111111111110000e+00 -5.000000000000000e-01
5.000000000000000e-01 1.619047619050000e+00 -5.000000000000000e-01
5.000000000000000e-01 1.619047619050000e+00 0.000000000000000e+00
5.000000000000000e-01 1.055555555560000e+00 0.000000000000000e+00
5.000000000000000e-01 1.055555555560000e+00 -5.000000000000000e-01
0.000000000000000e+00 1.666666666670000e+00 0.000000000000000e+00
0.000000000000000e+00 1.666666666670000e+00 5.000000000000000e-01
0.000000000000000e+00 1.111111111110000e+00 5.000000000000000e-01
0.000000000000000e+00 1.111111111110000e+00 0.000000000000000e+00
5.000000000000000e-01 1.619047619050000e+00 0.000000000000000e+00
5.000000000000000e-01 1.619047619050000e+00 5.000000000000000e-01
5.000000000000000e-01 1.055555555560000e+00 5.000000000000000e-01
5.000000000000000e-01 1.055555555560000e+00 0.000000000000000e+00
0.000000000000000e+00 1.111111111110000e+00 -5.000000000000000e-01
0.000000000000000e+00 1.111111111110000e+00 0.000000000000000e+00
0.000000000000000e+00 5.555555555560000e-01 0.000000000000000e+00
0.000000000000000e+00 5.555555555560000e-01 -5.000000000000000e-01
5.000000000000000e-01 1.055555555560000e+00 -5.000000000000000e-01
5.000000000000000e-01 1.055555555560000e+00 0.000000000000000e+00
5.000000000000000e-01 5.277777777779999e-01 0.000000000000000e+00
5.000000000000000e-01 5.277777777779999e-01 -5.000000000000000e-01
0.000000000000000e+00 1.111111111110000e+00 0.000000000000000e+00
0.000000000000000e+00 1.111111111110000e+00 5.000000000000000e-01
0.000000000000000e+00 5.555555555560000e-01 5.000000000000000e-01
0.000000000000000e+00 5.555555555560000e-01 0.000000000000000e+00
5.000000000000000e-01 1.055555555560000e+00 0.000000000000000e+00
5.000000000000000e-01 1.055555555560000e+00 5.000000000000000e-01
5.000000000000000e-01 5.277777777779999e-01 5.000000000000000e-01
5.000000000000000e-01 5.277777777779999e-01 0.000000000000000e+00
0.000000000000000e+00 5.555555555560000e-01 -5.000000000000000e-01
0.000000000000000e+00 5.555555555560000e-01 0.000000000000000e+00
0.000000000000000e+00 0.000000000000000e+00 0.000000000000000e+00
0.000000000000000e+00 0.000000000000000e+00 -5.000000000000000e-01
5.000000000000000e-01 5.277777777779999e-01 -5.000000000000000e-01
5.000000000000000e-01 5.277777777779999e-01 0.000000000000000e+00
5.000000000000000e-01 0.000000000000000e+00 0.000000000000000e+00
5.000000000000000e-01 0.000000000000000e+00 -5.000000000000000e-01
0.000000000000000e+00 5.555555555560000e-01 0.000000000000000e+00
0.000000000000000e+00 5.555555555560000e-01 5.000000000000000e-01
0.000000000000000e+00 0.000000000000000e+00 5.000000000000000e-01
0.000000000000000e+00 0.000000000000000e+00 0.000000000000000e+00
5.000000000000000e-01 5.277777777779999e-01 0.000000000000000e+00
5.000000000000000e-01 5.277777777779999e-01 5.000000000000000e-01
5.000000000000000e-01 0.000000000000000e+00 5.000000000000000e-01
[...]
  <PointData>
        <DataArray type="Float64" Name="displacement" NumberOfComponents="3" format="ascii">
0.000000000000000e+00 0.000000000000000e+00 0.000000000000000e+00
0.000000000000000e+00 0.000000000000000e+00 0.000000000000000e+00
1.220069915779554e-02 -1.791888382878340e-02 6.347378138377561e-04
2.039253500280106e-02 -2.998451228575290e-02 9.326052361192723e-04
0.000000000000000e+00 0.000000000000000e+00 0.000000000000000e+00
0.000000000000000e+00 0.000000000000000e+00 0.000000000000000e+00
1.186493493474719e-02 1.275186949294031e-03 8.321967313776891e-03
2.015769645066656e-02 -1.097218839769908e-02 8.635690625841163e-03
0.000000000000000e+00 0.000000000000000e+00 0.000000000000000e+00
0.000000000000000e+00 0.000000000000000e+00 0.000000000000000e+00
3.995256940263979e-03 -5.805751602960029e-03 3.373109302920839e-04
1.220069915779554e-02 -1.791888382878340e-02 6.347378138377561e-04
0.000000000000000e+00 0.000000000000000e+00 0.000000000000000e+00
0.000000000000000e+00 0.000000000000000e+00 0.000000000000000e+00
3.586359530259257e-03 1.350431231328483e-02 8.010946889671376e-03
1.186493493474719e-02 1.275186949294031e-03 8.321967313776891e-03
2.039253500280106e-02 -2.998451228575290e-02 9.326052361192723e-04
1.220069915779554e-02 -1.791888382878340e-02 6.347378138377561e-04
4.492258712997176e-02 -3.326990142199111e-02 1.450371155437506e-02
6.149183934474383e-02 -5.539918247710203e-02 1.533256491957659e-02
2.015769645066656e-02 -1.097218839769908e-02 8.635690625841163e-03
1.186493493474719e-02 1.275186949294031e-03 8.321967313776891e-03
4.434108784593864e-02 3.528643872545581e-03 2.998644744522396e-02
6.110721952904470e-02 -1.893410180618456e-02 3.084744661198795e-02
1.220069915779554e-02 -1.791888382878340e-02 6.347378138377561e-04
3.995256940263979e-03 -5.805751602960029e-03 3.373109302920839e-04
2.833852409747049e-02 -1.106211326170340e-02 1.367243137951608e-02
4.492258712997176e-02 -3.326990142199111e-02 1.450371155437506e-02
1.186493493474719e-02 1.275186949294031e-03 8.321967313776891e-03
3.586359530259257e-03 1.350431231328483e-02 8.010946889671376e-03
2.758313881261534e-02 2.602481576383465e-02 2.912606123126142e-02
4.434108784593864e-02 3.528643872545581e-03 2.998644744522396e-02
6.149183934474383e-02 -5.539918247710203e-02 1.533256491957659e-02
4.492258712997176e-02 -3.326990142199111e-02 1.450371155437506e-02
9.612917574009326e-02 -4.522278661355071e-02 4.001337311076554e-02
1.212426415014409e-01 -7.554269822924613e-02 4.161144069501017e-02
6.110721952904470e-02 -1.893410180618456e-02 3.084744661198795e-02
4.434108784593864e-02 3.528643872545581e-03 2.998644744522396e-02
9.521204238684521e-02 7.650780431378997e-03 6.328793028521645e-02
1.206248420657973e-01 -2.305211236220485e-02 6.493687666594780e-02
4.492258712997176e-02 -3.326990142199111e-02 1.450371155437506e-02
2.833852409747049e-02 -1.106211326170340e-02 1.367243137951608e-02
7.099986293571844e-02 -1.483890927999033e-02 3.841150837043229e-02
9.612917574009326e-02 -4.522278661355071e-02 4.001337311076554e-02
4.434108784593864e-02 3.528643872545581e-03 2.998644744522396e-02
2.758313881261534e-02 2.602481576383465e-02 2.912606123126142e-02
6.980762144567829e-02 3.837794689204976e-02 6.163898194979398e-02
9.521204238684521e-02 7.650780431378997e-03 6.328793028521645e-02
1.212426415014409e-01 -7.554269822924613e-02 4.161144069501017e-02
9.612917574009326e-02 -4.522278661355071e-02 4.001337311076554e-02
1.635125241566397e-01 -5.320232827377643e-02 7.535934504853545e-02
1.971925949410317e-01 -8.981029273726883e-02 7.787328144703126e-02
1.206248420657973e-01 -2.305211236220485e-02 6.493687666594780e-02
9.521204238684521e-02 7.650780431378997e-03 6.328793028521645e-02
1.622407423202158e-01 1.404484587134062e-02 1.064629145523261e-01
1.963312621219799e-01 -2.293106775835102e-02 1.090461226246015e-01
9.612917574009326e-02 -4.522278661355071e-02 4.001337311076554e-02
7.099986293571844e-02 -1.483890927999033e-02 3.841150837043229e-02
1.298160553740679e-01 -1.654616177825194e-02 7.284129029179379e-02
1.635125241566397e-01 -5.320232827377643e-02 7.535934504853545e-02
9.521204238684521e-02 7.650780431378997e-03 6.328793028521645e-02
6.980762144567829e-02 3.837794689204976e-02 6.163898194979398e-02
1.281577188249080e-01 5.104108793559971e-02 1.038794014709780e-01
1.622407423202158e-01 1.404484587134062e-02 1.064629145523261e-01
1.971925949410317e-01 -8.981029273726883e-02 7.787328144703126e-02
1.635125241566397e-01 -5.320232827377643e-02 7.535934504853545e-02
2.447218327191494e-01 -5.696765609065610e-02 1.186931627956237e-01
2.869281776535643e-01 -9.802493423621966e-02 1.221984169307128e-01
1.963312621219799e-01 -2.293106775835102e-02 1.090461226246015e-01
1.622407423202158e-01 1.404484587134062e-02 1.064629145523261e-01
2.431968625533245e-01 2.289441352097136e-02 1.576979894449943e-01
2.858236521456906e-01 -1.844388821438490e-02 1.612732530003491e-01
1.635125241566397e-01 -5.320232827377643e-02 7.535934504853545e-02
1.298160553740679e-01 -1.654616177825194e-02 7.284129029179379e-02
2.024991083341747e-01 -1.587480559995043e-02 1.151839195391927e-01
2.447218327191494e-01 -5.696765609065610e-02 1.186931627956237e-01
1.622407423202158e-01 1.404484587134062e-02 1.064629145523261e-01
1.281577188249080e-01 5.104108793559971e-02 1.038794014709780e-01
2.005765154654388e-01 6.424340920146832e-02 1.541227859629744e-01
2.431968625533245e-01 2.289441352097136e-02 1.576979894449943e-01
2.869281776535643e-01 -9.802493423621966e-02 1.221984169307128e-01
2.447218327191494e-01 -5.696765609065610e-02 1.186931627956237e-01
3.376358424385311e-01 -5.656681150363124e-02 1.682104591220741e-01
3.880456723422774e-01 -1.001727545969012e-01 1.726874126709877e-01
2.858236521456906e-01 -1.844388821438490e-02 1.612732530003491e-01
2.431968625533245e-01 2.289441352097136e-02 1.576979894449943e-01
3.357555948129554e-01 3.418402665457464e-02 2.151095616013960e-01
3.869237407073783e-01 -9.848603902709767e-03 2.197254954557642e-01
2.447218327191494e-01 -5.696765609065610e-02 1.186931627956237e-01
2.024991083341747e-01 -1.587480559995043e-02 1.151839195391927e-01
2.872217913467832e-01 -1.292938135928849e-02 1.637303979941598e-01
3.376358424385311e-01 -5.656681150363124e-02 1.682104591220741e-01
2.431968625533245e-01 2.289441352097136e-02 1.576979894449943e-01
2.005765154654388e-01 6.424340920146832e-02 1.541227859629744e-01
2.846112467108620e-01 7.823191462988492e-02 2.104951402025882e-01
3.357555948129554e-01 3.418402665457464e-02 2.151095616013960e-01
3.880456723422774e-01 -1.001727545969012e-01 1.726874126709877e-01
3.376358424385311e-01 -5.656681150363124e-02 1.682104591220741e-01
4.399634298435717e-01 -5.168760165736573e-02 2.226585533913707e-01
4.972800143219999e-01 -9.632018639895541e-02 2.279684589386184e-01
3.869237407073783e-01 -9.848603902709767e-03 2.197254954557642e-01
3.357555948129554e-01 3.418402665457464e-02 2.151095616013960e-01
4.382244478473713e-01 4.707522537548188e-02 2.763019812320568e-01
4.971038517419806e-01 2.457164910182026e-03 2.818106906803087e-01
3.376358424385311e-01 -5.656681150363124e-02 1.682104591220741e-01
2.872217913467832e-01 -1.292938135928849e-02 1.637303979941598e-01
3.826443298255571e-01 -7.029202245190825e-03 2.173460383845661e-01
4.399634298435717e-01 -5.168760165736573e-02 2.226585533913707e-01
3.357555948129554e-01 3.418402665457464e-02 2.151095616013960e-01
2.846112467108620e-01 7.823191462988492e-02 2.104951402025882e-01
3.793786877898220e-01 9.172599532819978e-02 2.707944586813022e-01
4.382244478473713e-01 4.707522537548188e-02 2.763019812320568e-01
4.972800143219999e-01 -9.632018639895541e-02 2.279684589386184e-01
4.399634298435717e-01 -5.168760165736573e-02 2.226585533913707e-01
5.480554799026893e-01 -4.206433060931036e-02 2.812437794194714e-01
6.098556929170814e-01 -8.668877279783711e-02 2.870873612167438e-01
4.971038517419806e-01 2.457164910182026e-03 2.818106906803087e-01
4.382244478473713e-01 4.707522537548188e-02 2.763019812320568e-01
5.405430495092403e-01 6.054024216622489e-02 3.359189271929886e-01
6.034513057323452e-01 1.618787525876166e-02 3.418840955638804e-01
4.399634298435717e-01 -5.168760165736573e-02 2.226585533913707e-01
3.826443298255571e-01 -7.029202245190825e-03 2.173460383845661e-01
4.862559512084373e-01 2.573335355166975e-03 2.753990831540337e-01
5.480554799026893e-01 -4.206433060931036e-02 2.812437794194714e-01
4.382244478473713e-01 4.707522537548188e-02 2.763019812320568e-01
3.793786877898220e-01 9.172599532819978e-02 2.707944586813022e-01
4.776431040039985e-01 1.049102001196913e-01 3.299532846741923e-01
5.405430495092403e-01 6.054024216622489e-02 3.359189271929886e-01
6.098556929170814e-01 -8.668877279783711e-02 2.870873612167438e-01
5.480554799026893e-01 -4.206433060931036e-02 2.812437794194714e-01
6.569109931915129e-01 -2.890176389132009e-02 3.427479343847773e-01
7.201115041781077e-01 -7.332983177248373e-02 3.487485477685211e-01
6.034513057323452e-01 1.618787525876166e-02 3.418840955638804e-01
5.405430495092403e-01 6.054024216622489e-02 3.359189271929886e-01
6.440348527625883e-01 7.423232268572856e-02 3.956705130974654e-01
7.079179666546168e-01 2.988307333755921e-02 4.017549670811386e-01
5.480554799026893e-01 -4.206433060931036e-02 2.812437794194714e-01
4.862559512084373e-01 2.573335355166975e-03 2.753990831540337e-01
5.937129705059446e-01 1.553077570118488e-02 3.367472303140536e-01
6.569109931915129e-01 -2.890176389132009e-02 3.427479343847773e-01
5.405430495092403e-01 6.054024216622489e-02 3.359189271929886e-01
4.776431040039985e-01 1.049102001196913e-01 3.299532846741923e-01
5.801599346101660e-01 1.185870870188928e-01 3.895866206409158e-01
6.440348527625883e-01 7.423232268572856e-02 3.956705130974654e-01
0.000000000000000e+00 0.000000000000000e+00 0.000000000000000e+00
0.000000000000000e+00 0.000000000000000e+00 0.000000000000000e+00
1.186493493474719e-02 1.275186949294031e-03 8.321967313776891e-03
2.015769645066656e-02 -1.097218839769908e-02 8.635690625841163e-03
0.000000000000000e+00 0.000000000000000e+00 0.000000000000000e+00
0.000000000000000e+00 0.000000000000000e+00 0.000000000000000e+00
1.151966956877180e-02 2.094458187941083e-02 1.619330584964994e-02
1.991482975083621e-02 8.444597526948410e-03 1.649568954040228e-02
0.000000000000000e+00 0.000000000000000e+00 0.000000000000000e+00
0.000000000000000e+00 0.000000000000000e+00 0.000000000000000e+00
3.586359530259257e-03 1.350431231328483e-02 8.010946889671376e-03
1.186493493474719e-02 1.275186949294031e-03 8.321967313776891e-03
0.000000000000000e+00 0.000000000000000e+00 0.000000000000000e+00
0.000000000000000e+00 0.000000000000000e+00 0.000000000000000e+00
3.164971141758113e-03 3.337212135466838e-02 1.589486596434106e-02
1.151966956877180e-02 2.094458187941083e-02 1.619330584964994e-02
2.015769645066656e-02 -1.097218839769908e-02 8.635690625841163e-03
1.186493493474719e-02 1.275186949294031e-03 8.321967313776891e-03
4.434108784593864e-02 3.528643872545581e-03 2.998644744522396e-02
6.110721952904470e-02 -1.893410180618456e-02 3.084744661198795e-02
1.991482975083621e-02 8.444597526948410e-03 1.649568954040228e-02
1.151966956877180e-02 2.094458187941083e-02 1.619330584964994e-02
4.369788758457249e-02 4.135981229298052e-02 4.582226953409428e-02
6.066326519080602e-02 1.849952886808786e-02 4.669396871141102e-02
1.186493493474719e-02 1.275186949294031e-03 8.321967313776891e-03
3.586359530259257e-03 1.350431231328483e-02 8.010946889671376e-03
2.758313881261534e-02 2.602481576383465e-02 2.912606123126142e-02
4.434108784593864e-02 3.528643872545581e-03 2.998644744522396e-02
1.151966956877180e-02 2.094458187941083e-02 1.619330584964994e-02
3.164971141758113e-03 3.337212135466838e-02 1.589486596434106e-02
2.676255679061979e-02 6.420420454167124e-02 4.495366880765126e-02
4.369788758457249e-02 4.135981229298052e-02 4.582226953409428e-02
6.110721952904470e-02 -1.893410180618456e-02 3.084744661198795e-02
4.434108784593864e-02 3.528643872545581e-03 2.998644744522396e-02
9.521204238684521e-02 7.650780431378997e-03 6.328793028521645e-02
1.206248420657973e-01 -2.305211236220485e-02 6.493687666594780e-02
6.066326519080602e-02 1.849952886808786e-02 4.669396871141102e-02
4.369788758457249e-02 4.135981229298052e-02 4.582226953409428e-02
9.416427736778335e-02 6.187087244017714e-02 8.707789861620548e-02
1.198828763061530e-01 3.074308481294457e-02 8.875560579416994e-02
4.434108784593864e-02 3.528643872545581e-03 2.998644744522396e-02
2.758313881261534e-02 2.602481576383465e-02 2.912606123126142e-02
6.980762144567829e-02 3.837794689204976e-02 6.163898194979398e-02
9.521204238684521e-02 7.650780431378997e-03 6.328793028521645e-02
4.369788758457249e-02 4.135981229298052e-02 4.582226953409428e-02
2.676255679061979e-02 6.420420454167124e-02 4.495366880765126e-02
6.847697110132851e-02 9.298485957457590e-02 8.540330653882772e-02
9.416427736778335e-02 6.187087244017714e-02 8.707789861620548e-02
1.206248420657973e-01 -2.305211236220485e-02 6.493687666594780e-02
9.521204238684521e-02 7.650780431378997e-03 6.328793028521645e-02
1.622407423202158e-01 1.404484587134062e-02 1.064629145523261e-01
1.963312621219799e-01 -2.293106775835102e-02 1.090461226246015e-01
1.198828763061530e-01 3.074308481294457e-02 8.875560579416994e-02
9.416427736778335e-02 6.187087244017714e-02 8.707789861620548e-02
1.607747282952114e-01 8.286269118470155e-02 1.382413290211384e-01
1.952620337698930e-01 4.547911095641380e-02 1.408700287849826e-01
9.521204238684521e-02 7.650780431378997e-03 6.328793028521645e-02
6.980762144567829e-02 3.837794689204976e-02 6.163898194979398e-02
1.281577188249080e-01 5.104108793559971e-02 1.038794014709780e-01
1.622407423202158e-01 1.404484587134062e-02 1.064629145523261e-01
9.416427736778335e-02 6.187087244017714e-02 8.707789861620548e-02
6.847697110132851e-02 9.298485957457590e-02 8.540330653882772e-02
1.263189982099760e-01 1.202340496097030e-01 1.356162149669370e-01
1.607747282952114e-01 8.286269118470155e-02 1.382413290211384e-01
1.963312621219799e-01 -2.293106775835102e-02 1.090461226246015e-01
1.622407423202158e-01 1.404484587134062e-02 1.064629145523261e-01
2.431968625533245e-01 2.289441352097136e-02 1.576979894449943e-01
2.858236521456906e-01 -1.844388821438490e-02 1.612732530003491e-01
1.952620337698930e-01 4.547911095641380e-02 1.408700287849826e-01
1.607747282952114e-01 8.286269118470155e-02 1.382413290211384e-01
2.413802504734051e-01 1.044005982526538e-01 1.975463329228316e-01
2.845214065438291e-01 6.270606746780130e-02 2.011864980497174e-01
1.622407423202158e-01 1.404484587134062e-02 1.064629145523261e-01
1.281577188249080e-01 5.104108793559971e-02 1.038794014709780e-01
2.005765154654388e-01 6.424340920146832e-02 1.541227859629744e-01
2.431968625533245e-01 2.289441352097136e-02 1.576979894449943e-01
1.607747282952114e-01 8.286269118470155e-02 1.382413290211384e-01
1.263189982099760e-01 1.202340496097030e-01 1.356162149669370e-01
1.982637970844586e-01 1.460959979634533e-01 1.939082156812510e-01
2.413802504734051e-01 1.044005982526538e-01 1.975463329228316e-01
2.858236521456906e-01 -1.844388821438490e-02 1.612732530003491e-01
2.431968625533245e-01 2.289441352097136e-02 1.576979894449943e-01
3.357555948129554e-01 3.418402665457464e-02 2.151095616013960e-01
3.869237407073783e-01 -9.848603902709767e-03 2.197254954557642e-01
2.845214065438291e-01 6.270606746780130e-02 2.011864980497174e-01
2.413802504734051e-01 1.044005982526538e-01 1.975463329228316e-01
3.337572251056226e-01 1.262404140349189e-01 2.631527258093806e-01
3.851690473545843e-01 8.234197980227087e-02 2.677645347212483e-01
2.431968625533245e-01 2.289441352097136e-02 1.576979894449943e-01
2.005765154654388e-01 6.424340920146832e-02 1.541227859629744e-01
2.846112467108620e-01 7.823191462988492e-02 2.104951402025882e-01
3.357555948129554e-01 3.418402665457464e-02 2.151095616013960e-01
2.413802504734051e-01 1.044005982526538e-01 1.975463329228316e-01
1.982637970844586e-01 1.460959979634533e-01 1.939082156812510e-01
2.824081596716574e-01 1.701059560343438e-01 2.585508384101733e-01
3.337572251056226e-01 1.262404140349189e-01 2.631527258093806e-01
3.869237407073783e-01 -9.848603902709767e-03 2.197254954557642e-01
3.357555948129554e-01 3.418402665457464e-02 2.151095616013960e-01
4.382244478473713e-01 4.707522537548188e-02 2.763019812320568e-01
4.971038517419806e-01 2.457164910182026e-03 2.818106906803087e-01
3.851690473545843e-01 8.234197980227087e-02 2.677645347212483e-01
3.337572251056226e-01 1.262404140349189e-01 2.631527258093806e-01
4.347203700551545e-01 1.485987894281626e-01 3.336072924491671e-01
4.977091321174708e-01 1.039193087709059e-01 3.396525980658836e-01
3.357555948129554e-01 3.418402665457464e-02 2.151095616013960e-01
2.846112467108620e-01 7.823191462988492e-02 2.104951402025882e-01
3.793786877898220e-01 9.172599532819978e-02 2.707944586813022e-01
4.382244478473713e-01 4.707522537548188e-02 2.763019812320568e-01
3.337572251056226e-01 1.262404140349189e-01 2.631527258093806e-01
2.824081596716574e-01 1.701059560343438e-01 2.585508384101733e-01
3.717763467849001e-01 1.933309130919895e-01 3.275628912842242e-01
4.347203700551545e-01 1.485987894281626e-01 3.336072924491671e-01
4.971038517419806e-01 2.457164910182026e-03 2.818106906803087e-01
4.382244478473713e-01 4.707522537548188e-02 2.763019812320568e-01
5.405430495092403e-01 6.054024216622489e-02 3.359189271929886e-01
6.034513057323452e-01 1.618787525876166e-02 3.418840955638804e-01
4.977091321174708e-01 1.039193087709059e-01 3.396525980658836e-01
4.347203700551545e-01 1.485987894281626e-01 3.336072924491671e-01
5.332050885926164e-01 1.644148582218785e-01 3.926411522810734e-01
5.993521884261607e-01 1.196510080347424e-01 3.990741268843770e-01
4.382244478473713e-01 4.707522537548188e-02 2.763019812320568e-01
3.793786877898220e-01 9.172599532819978e-02 2.707944586813022e-01
4.776431040039985e-01 1.049102001196913e-01 3.299532846741923e-01
5.405430495092403e-01 6.054024216622489e-02 3.359189271929886e-01
4.347203700551545e-01 1.485987894281626e-01 3.336072924491671e-01
3.717763467849001e-01 1.933309130919895e-01 3.275628912842242e-01
4.670524600260303e-01 2.092019093872392e-01 3.862053771066235e-01
5.332050885926164e-01 1.644148582218785e-01 3.926411522810734e-01
6.034513057323452e-01 1.618787525876166e-02 3.418840955638804e-01
5.405430495092403e-01 6.054024216622489e-02 3.359189271929886e-01
6.440348527625883e-01 7.423232268572856e-02 3.956705130974654e-01
7.079179666546168e-01 2.988307333755921e-02 4.017549670811386e-01
5.993521884261607e-01 1.196510080347424e-01 3.990741268843770e-01
5.332050885926164e-01 1.644148582218785e-01 3.926411522810734e-01
6.324643149357604e-01 1.783476410587772e-01 4.504358744210221e-01
6.987603739684143e-01 1.336453670731720e-01 4.568771254801313e-01
5.405430495092403e-01 6.054024216622489e-02 3.359189271929886e-01
4.776431040039985e-01 1.049102001196913e-01 3.299532846741923e-01
5.801599346101660e-01 1.185870870188928e-01 3.895866206409158e-01
6.440348527625883e-01 7.423232268572856e-02 3.956705130974654e-01
5.332050885926164e-01 1.644148582218785e-01 3.926411522810734e-01
4.670524600260303e-01 2.092019093872392e-01 3.862053771066235e-01
5.661764810442868e-01 2.230591541330371e-01 4.439949336791856e-01
6.324643149357604e-01 1.783476410587772e-01 4.504358744210221e-01
5.661764810442868e-01 2.230591541330371e-01 4.439949336791856e-01
6.324643149357604e-01 1.783476410587772e-01 4.504358744210221e-01
5.332050885926164e-01 1.644148582218785e-01 3.926411522810734e-01
4.670524600260303e-01 2.092019093872392e-01 3.862053771066235e-01
5.509969620954679e-01 3.305821941889378e-01 5.014956531795206e-01
6.207570946675484e-01 2.861672588567058e-01 5.083900598790589e-01
5.189981575096085e-01 2.720251213541438e-01 4.499776089080044e-01
4.494114566616458e-01 3.163361446984294e-01 4.431140015853128e-01
6.324643149357604e-01 1.783476410587772e-01 4.504358744210221e-01
6.987603739684143e-01 1.336453670731720e-01 4.568771254801313e-01
5.993521884261607e-01 1.196510080347424e-01 3.990741268843770e-01
5.332050885926164e-01 1.644148582218785e-01 3.926411522810734e-01