<?xml version="1.0" ?> 
<!-- 
# vtk DataFile Version 3.0
-->
<VTKFile type="UnstructuredGrid" version="0.1" compressor="vtkZLibDataCompressor" byte_order="LittleEndian">
  <UnstructuredGrid>
    <FieldData>
      <DataArray type="Float64" Name="TIME" NumberOfTuples="1" format="ascii">
5.000000000000000e-01 
      </DataArray>
    </FieldData>

    <Piece NumberOfPoints="416" NumberOfCells="52" >
      <Points>
        <DataArray type="Float64" NumberOfComponents="3" format="ascii">
0.000000000000000e+00 5.000000000000000e+00 -5.000000000000000e-01
0.000000000000000e+00 5.000000000000000e+00 0.000000000000000e+00
0.000000000000000e+00 4.444444444440000e+00 0.000000000000000e+00
0.000000000000000e+00 4.444444444440000e+00 -5.000000000000000e-01
5.000000000000000e-01 5.000000000000000e+00 -5.000000000000000e-01
5.000000000000000e-01 5.000000000000000e+00 0.000000000000000e+00
5.000000000000000e-01 4.436507936510000e+00 0.000000000000000e+00
5.000000000000000e-01 4.436507936510000e+00 -5.000000000000000e-01
0.000000000000000e+00 5.000000000000000e+00 0.000000000000000e+00
0.000000000000000e+00 5.000000000000000e+00 5.000000000000000e-01
0.000000000000000e+00 4.444444444440000e+00 5.000000000000000e-01
0.000000000000000e+00 4.444444444440000e+00 0.000000000000000e+00
5.000000000000000e-01 5.000000000000000e+00 0.000000000000000e+00
5.000000000000000e-01 5.000000000000000e+00 5.000000000000000e-01
5.000000000000000e-01 4.436507936510000e+00 5.000000000000000e-01
5.000000000000000e-01 4.436507936510000e+00 0.000000000000000e+00
0.000000000000000e+00 4.444444444440000e+00 -5.000000000000000e-01
0.000000000000000e+00 4.444444444440000e+00 0.000000000000000e+00
0.000000000000000e+00 3.888888888890000e+00 0.000000000000000e+00
0.000000000000000e+00 3.888888888890000e+00 -5.000000000000000e-01
5.000000000000000e-01 4.436507936510000e+00 -5.000000000000000e-01
5.000000000000000e-01 4.436507936510000e+00 0.000000000000000e+00
5.000000000000000e-01 3.873015873020000e+00 0.000000000000000e+00
5.000000000000000e-01 3.873015873020000e+00 -5.000000000000000e-01
0.000000000000000e+00 4.444444444440000e+00 0.000000000000000e+00
0.000000000000000e+00 4.444444444440000e+00 5.000000000000000e-01
0.000000000000000e+00 3.888888888890000e+00 5.000000000000000e-01
0.000000000000000e+00 3.888888888890000e+00 0.000000000000000e+00
5.000000000000000e-01 4.436507936510000e+00 0.000000000000000e+00
5.000000000000000e-01 4.436507936510000e+00 5.000000000000000e-01
5.000000000000000e-01 3.873015873020000e+00 5.000000000000000e-01
5.000000000000000e-01 3.873015873020000e+00 0.000000000000000e+00
0.000000000000000e+00 3.888888888890000e+00 -5.000000000000000e-01
0.000000000000000e+00 3.888888888890000e+00 0.000000000000000e+00
0.000000000000000e+00 3.333333333330000e+00 0.000000000000000e+00
0.000000000000000e+00 3.333333333330000e+00 -5.000000000000000e-01
5.000000000000000e-01 3.873015873020000e+00 -5.000000000000000e-01
5.000000000000000e-01 3.873015873020000e+00 0.000000000000000e+00
5.000000000000000e-01 3.309523809520000e+00 0.000000000000000e+00
5.000000000000000e-01 3.309523809520000e+00 -5.000000000000000e-01
0.000000000000000e+00 3.888888888890000e+00 0.000000000000000e+00
0.000000000000000e+00 3.888888888890000e+00 5.000000000000000e-01
0.000000000000000e+00 3.333333333330000e+00 5.000000000000000e-01
0.000000000000000e+00 3.333333333330000e+00 0.000000000000000e+00
5.000000000000000e-01 3.873015873020000e+00 0.000000000000000e+00
5.000000000000000e-01 3.873015873020000e+00 5.000000000000000e-01
5.000000000000000e-01 3.309523809520000e+00 5.000000000000000e-01
5.000000000000000e-01 3.309523809520000e+00 0.000000000000000e+00
0.000000000000000e+00 3.333333333330000e+00 -5.000000000000000e-01
0.000000000000000e+00 3.333333333330000e+00 0.000000000000000e+00
0.000000000000000e+00 2.777777777780000e+00 0.000000000000000e+00
0.000000000000000e+00 2.777777777780000e+00 -5.000000000000000e-01
5.000000000000000e-01 3.309523809520000e+00 -5.000000000000000e-01
5.000000000000000e-01 3.309523809520000e+00 0.000000000000000e+00
5.000000000000000e-01 2.746031746030000e+00 0.000000000000000e+00
5.000000000000000e-01 2.746031746030000e+00 -5.000000000000000e-01
0.000000000000000e+00 3.333333333330000e+00 0.000000000000000e+00
0.000000000000000e+00 3.333333333330000e+00 5.000000000000000e-01
0.000000000000000e+00 2.777777777780000e+00 5.000000000000000e-01
0.000000000000000e+00 2.777777777780000e+00 0.000000000000000e+00
5.000000000000000e-01 3.309523809520000e+00 0.000000000000000e+00
5.000000000000000e-01 3.309523809520000e+00 5.000000000000000e-01
5.000000000000000e-01 2.746031746030000e+00 5.000000000000000e-01
5.000000000000000e-01 2.746031746030000e+00 0.000000000000000e+00
0.000000000000000e+00 2.777777777780000e+00 -5.000000000000000e-01
0.000000000000000e+00 2.777777777780000e+00 0.000000000000000e+00
0.000000000000000e+00 2.222222222220000e+00 0.000000000000000e+00
0.000000000000000e+00 2.222222222220000e+00 -5.000000000000000e-01
5.000000000000000e-01 2.746031746030000e+00 -5.000000000000000e-01
5.000000000000000e-01 2.746031746030000e+00 0.000000000000000e+00
5.000000000000000e-01 2.182539682540000e+00 0.000000000000000e+00
5.000000000000000e-01 2.182539682540000e+00 -5.000000000000000e-01
0.000000000000000e+00 2.777777777780000e+00 0.000000000000000e+00
0.000000000000000e+00 2.777777777780000e+00 5.000000000000000e-01
0.000000000000000e+00 2.222222222220000e+00 5.000000000000000e-01
0.000000000000000e+00 2.222222222220000e+00 0.000000000000000e+00
5.000000000000000e-01 2.746031746030000e+00 0.000000000000000e+00
5.000000000000000e-01 2.746031746030000e+00 5.000000000000000e-01
5.000000000000000e-01 2.182539682540000e+00 5.000000000000000e-01
5.000000000000000e-01 2.182539682540000e+00 0.000000000000000e+00
0.000000000000000e+00 2.222222222220000e+00 -5.000000000000000e-01
0.000000000000000e+00 2.222222222220000e+00 0.000000000000000e+00
0.000000000000000e+00 1.666666666670000e+00 0.000000000000000e+00
0.000000000000000e+00 1.666666666670000e+00 -5.000000000000000e-01
5.000000000000000e-01 2.182539682540000e+00 -5.000000000000000e-01
5.000000000000000e-01 2.182539682540000e+00 0.000000000000000e+00
5.000000000000000e-01 1.619047619050000e+00 0.000000000000000e+00
5.000000000000000e-01 1.619047619050000e+00 -5.000000000000000e-01
0.000000000000000e+00 2.222222222220000e+00 0.000000000000000e+00
0.000000000000000e+00 2.222222222220000e+00 5.000000000000000e-01
0.000000000000000e+00 1.666666666670000e+00 5.000000000000000e-01
0.000000000000000e+00 1.666666666670000e+00 0.000000000000000e+00
5.000000000000000e-01 2.182539682540000e+00 0.000000000000000e+00
5.000000000000000e-01 2.182539682540000e+00 5.000000000000000e-01
5.000000000000000e-01 1.619047619050000e+00 5.000000000000000e-01
5.000000000000000e-01 1.619047619050000e+00 0.000000000000000e+00
0.000000000000000e+00 1.666666666670000e+00 -5.000000000000000e-01
0.000000000000000e+00 1.666666666670000e+00 0.000000000000000e+00
0.000000000000000e+00 1.111111111110000e+00 0.000000000000000e+00
0.000000000000000e+00 1.111111111110000e+00 -5.000000000000000e-01
5.000000000000000e-01 1.619047619050000e+00 -5.000000000000000e-01
5.000000000000000e-01 1.619047619050000e+00 0.000000000000000e+00
5.000000000000000e-01 1.055555555560000e+00 0.000000000000000e+00
5.000000000000000e-01 1.055555555560000e+00 -5.000000000000000e-01
0.000000000000000e+00 1.666666666670000e+00 0.000000000000000e+00
0.000000000000000e+00 1.666666666670000e+00 5.000000000000000e-01
0.000000000000000e+00 1.111111111110000e+00 5.000000000000000e-01
0.000000000000000e+00 1.111111111110000e+00 0.000000000000000e+00
5.000000000000000e-01 1.619047619050000e+00 0.000000000000000e+00
5.000000000000000e-01 1.619047619050000e+00 5.000000000000000e-01
5.000000000000000e-01 1.055555555560000e+00 5.000000000000000e-01
5.000000000000000e-01 1.055555555560000e+00 0.000000000000000e+00
0.000000000000000e+00 1.111111111110000e+00 -5.000000000000000e-01
0.000000000000000e+00 1.111111111110000e+00 0.000000000000000e+00
0.000000000000000e+00 5.555555555560000e-01 0.000000000000000e+00
0.000000000000000e+00 5.555555555560000e-01 -5.000000000000000e-01
5.000000000000000e-01 1.055555555560000e+00 -5.000000000000000e-01
5.000000000000000e-01 1.055555555560000e+00 0.000000000000000e+00
5.000000000000000e-01 5.277777777779999e-01 0.000000000000000e+00
5.000000000000000e-01 5.277777777779999e-01 -5.000000000000000e-01
0.000000000000000e+00 1.111111111110000e+00 0.000000000000000e+00
0.000000000000000e+00 1.111111111110000e+00 5.000000000000000e-01
0.000000000000000e+00 5.555555555560000e-01 5.000000000000000e-01
0.000000000000000e+00 5.555555555560000e-01 0.000000000000000e+00
5.000000000000000e-01 1.055555555560000e+00 0.000000000000000e+00
5.000000000000000e-01 1.055555555560000e+00 5.000000000000000e-01
5.000000000000000e-01 5.277777777779999e-01 5.000000000000000e-01
5.000000000000000e-01 5.277777777779999e-01 0.000000000000000e+00
0.000000000000000e+00 5.555555555560000e-01 -5.000000000000000e-01
0.000000000000000e+00 5.555555555560000e-01 0.000000000000000e+00
0.000000000000000e+00 0.000000000000000e+00 0.000000000000000e+00
0.000000000000000e+00 0.000000000000000e+00 -5.000000000000000e-01
5.000000000000000e-01 5.277777777779999e-01 -5.000000000000000e-01
5.000000000000000e-01 5.277777777779999e-01 0.000000000000000e+00
5.000000000000000e-01 0.000000000000000e+00 0.000000000000000e+00
5.000000000000000e-01 0.000000000000000e+00 -5.000000000000000e-01
0.000000000000000e+00 5.555555555560000e-01 0.000000000000000e+00
0.000000000000000e+00 5.555555555560000e-01 5.000000000000000e-01
0.000000000000000e+00 0.000000000000000e+00 5.000000000000000e-01
0.000000000000000e+00 0.000000000000000e+00 0.000000000000000e+00
5.000000000000000e-01 5.277777777779999e-01 0.000000000000000e+00
5.000000000000000e-01 5.277777777779999e-01 5.000000000000000e-01
5.000000000000000e-01 0.000000000000000e+00 5.000000000000000e-01
[...]
  <PointData>
        <DataArray type="Float64" Name="displacement" NumberOfComponents="3" format="ascii">
0.000000000000000e+00 0.000000000000000e+00 0.000000000000000e+00
0.000000000000000e+00 0.000000000000000e+00 0.000000000000000e+00
6.049156019756154e-03 -9.222431005532935e-03 2.468378488326044e-05
1.021710921061527e-02 -1.529102219210890e-02 9.998035845388870e-05
0.000000000000000e+00 0.000000000000000e+00 0.000000000000000e+00
0.000000000000000e+00 0.000000000000000e+00 0.000000000000000e+00
6.033540512722065e-03 4.559904222617132e-04 4.106983034359703e-03
1.025097298574801e-02 -5.701317762194427e-03 4.186859889981800e-03
0.000000000000000e+00 0.000000000000000e+00 0.000000000000000e+00
0.000000000000000e+00 0.000000000000000e+00 0.000000000000000e+00
1.877006834825590e-03 -3.141238159752309e-03 -5.056976305281934e-05
6.049156019756154e-03 -9.222431005532935e-03 2.468378488326044e-05
0.000000000000000e+00 0.000000000000000e+00 0.000000000000000e+00
0.000000000000000e+00 0.000000000000000e+00 0.000000000000000e+00
1.819172463901876e-03 6.608476301116575e-03 4.027450506568409e-03
6.033540512722065e-03 4.559904222617132e-04 4.106983034359703e-03
1.021710921061527e-02 -1.529102219210890e-02 9.998035845388870e-05
6.049156019756154e-03 -9.222431005532935e-03 2.468378488326044e-05
2.242019911987751e-02 -1.739946010462700e-02 6.530759193860826e-03
3.080226664730709e-02 -2.863406813777698e-02 6.743164078029140e-03
1.025097298574801e-02 -5.701317762194427e-03 4.186859889981800e-03
6.033540512722065e-03 4.559904222617132e-04 4.106983034359703e-03
2.255673556941812e-02 1.161086167111226e-03 1.481173857047904e-02
3.103559488884201e-02 -1.023079275388429e-02 1.503256651272885e-02
6.049156019756154e-03 -9.222431005532935e-03 2.468378488326044e-05
1.877006834825590e-03 -3.141238159752309e-03 -5.056976305281934e-05
1.403425921556347e-02 -6.144388153741505e-03 6.318025080389022e-03
2.242019911987751e-02 -1.739946010462700e-02 6.530759193860826e-03
6.033540512722065e-03 4.559904222617132e-04 4.106983034359703e-03
1.819172463901876e-03 6.608476301116575e-03 4.027450506568409e-03
1.407989881473232e-02 1.256134337124554e-02 1.459099347348101e-02
2.255673556941812e-02 1.161086167111226e-03 1.481173857047904e-02
3.080226664730709e-02 -2.863406813777698e-02 6.743164078029140e-03
2.242019911987751e-02 -1.739946010462700e-02 6.530759193860826e-03
4.817488031046899e-02 -2.432158217121971e-02 1.868951996132191e-02
6.081812002333167e-02 -3.985539375466075e-02 1.910239626998464e-02
3.103559488884201e-02 -1.023079275388429e-02 1.503256651272885e-02
2.255673556941812e-02 1.161086167111226e-03 1.481173857047904e-02
4.855667751466284e-02 2.348172898521222e-03 3.123429861359978e-02
6.134484117852761e-02 -1.337343113450182e-02 3.166018302552016e-02
2.242019911987751e-02 -1.739946010462700e-02 6.530759193860826e-03
1.403425921556347e-02 -6.144388153741505e-03 6.318025080389022e-03
3.552766644825782e-02 -8.771068768785646e-03 1.827613805617360e-02
4.817488031046899e-02 -2.432158217121971e-02 1.868951996132191e-02
2.255673556941812e-02 1.161086167111226e-03 1.481173857047904e-02
1.407989881473232e-02 1.256134337124554e-02 1.459099347348101e-02
3.577066615230819e-02 1.807577085505074e-02 3.080842104826493e-02
4.855667751466284e-02 2.348172898521222e-03 3.123429861359978e-02
6.081812002333167e-02 -3.985539375466075e-02 1.910239626998464e-02
4.817488031046899e-02 -2.432158217121971e-02 1.868951996132191e-02
8.229595137217705e-02 -2.983113140885230e-02 3.561509474055718e-02
9.920817642009411e-02 -4.878666464200709e-02 3.626946376712146e-02
6.134484117852761e-02 -1.337343113450182e-02 3.166018302552016e-02
4.855667751466284e-02 2.348172898521222e-03 3.123429861359978e-02
8.301032800179971e-02 4.124829579112438e-03 5.247935275596872e-02
1.001225926587592e-01 -1.502090379983889e-02 5.315159292654816e-02
4.817488031046899e-02 -2.432158217121971e-02 1.868951996132191e-02
3.552766644825782e-02 -8.771068768785646e-03 1.827613805617360e-02
6.537961684306275e-02 -1.086282185408396e-02 3.496017173008822e-02
8.229595137217705e-02 -2.983113140885230e-02 3.561509474055718e-02
4.855667751466284e-02 2.348172898521222e-03 3.123429861359978e-02
3.577066615230819e-02 1.807577085505074e-02 3.080842104826493e-02
6.590004181435458e-02 2.327560508160456e-02 5.180707972450291e-02
8.301032800179971e-02 4.124829579112438e-03 5.247935275596872e-02
9.920817642009411e-02 -4.878666464200709e-02 3.626946376712146e-02
8.229595137217705e-02 -2.983113140885230e-02 3.561509474055718e-02
1.237364723959352e-01 -3.385539767489776e-02 5.640900173008341e-02
1.449253858355107e-01 -5.537514219714916e-02 5.732881180197808e-02
1.001225926587592e-01 -1.502090379983889e-02 5.315159292654816e-02
8.301032800179971e-02 4.124829579112438e-03 5.247935275596872e-02
1.248994500409099e-01 6.551874815117526e-03 7.763636128668952e-02
1.462949980024888e-01 -1.511906997163878e-02 7.857436806306259e-02
8.229595137217705e-02 -2.983113140885230e-02 3.561509474055718e-02
6.537961684306275e-02 -1.086282185408396e-02 3.496017173008822e-02
1.025433997218399e-01 -1.232604384669755e-02 5.548864675927068e-02
1.237364723959352e-01 -3.385539767489776e-02 5.640900173008341e-02
8.301032800179971e-02 4.124829579112438e-03 5.247935275596872e-02
6.590004181435458e-02 2.327560508160456e-02 5.180707972450291e-02
1.035055155294448e-01 2.822537265951575e-02 7.669836662598999e-02
1.248994500409099e-01 6.551874815117526e-03 7.763636128668952e-02
1.449253858355107e-01 -5.537514219714916e-02 5.732881180197808e-02
1.237364723959352e-01 -3.385539767489776e-02 5.640900173008341e-02
1.715765046784164e-01 -3.642187179493190e-02 8.019421043983027e-02
1.969297609181739e-01 -5.958470638282290e-02 8.137878710366862e-02
1.462949980024888e-01 -1.511906997163878e-02 7.857436806306259e-02
1.248994500409099e-01 6.551874815117526e-03 7.763636128668952e-02
1.731409069735158e-01 9.674301834668969e-03 1.057697920265863e-01
1.988692124702190e-01 -1.374070923435757e-02 1.069916042747798e-01
1.237364723959352e-01 -3.385539767489776e-02 5.640900173008341e-02
1.025433997218399e-01 -1.232604384669755e-02 5.548864675927068e-02
1.462225397809907e-01 -1.325057755063434e-02 7.900921719844821e-02
1.715765046784164e-01 -3.642187179493190e-02 8.019421043983027e-02
1.248994500409099e-01 6.551874815117526e-03 7.763636128668952e-02
1.035055155294448e-01 2.822537265951575e-02 7.669836662598999e-02
1.474191046736287e-01 3.309271000996794e-02 1.045482126336471e-01
1.731409069735158e-01 9.674301834668969e-03 1.057697920265863e-01
1.969297609181739e-01 -5.958470638282290e-02 8.137878710366862e-02
1.715765046784164e-01 -3.642187179493190e-02 8.019421043983027e-02
2.248486721262121e-01 -3.726105350852488e-02 1.063985071503411e-01
2.537500813361997e-01 -6.127310846700500e-02 1.078136046253914e-01
1.988692124702190e-01 -1.374070923435757e-02 1.069916042747798e-01
1.731409069735158e-01 9.674301834668969e-03 1.057697920265863e-01
2.269790522790224e-01 1.308697359028192e-02 1.356573668821144e-01
2.566898125064712e-01 -1.099740735706566e-02 1.371279147622981e-01
1.715765046784164e-01 -3.642187179493190e-02 8.019421043983027e-02
1.462225397809907e-01 -1.325057755063434e-02 7.900921719844821e-02
1.959470774418540e-01 -1.324199800200028e-02 1.049830632145360e-01
2.248486721262121e-01 -3.726105350852488e-02 1.063985071503411e-01
1.731409069735158e-01 9.674301834668969e-03 1.057697920265863e-01
1.474191046736287e-01 3.309271000996794e-02 1.045482126336471e-01
1.972781121804892e-01 3.717924703543457e-02 1.341870416410514e-01
2.269790522790224e-01 1.308697359028192e-02 1.356573668821144e-01
2.537500813361997e-01 -6.127310846700500e-02 1.078136046253914e-01
2.248486721262121e-01 -3.726105350852488e-02 1.063985071503411e-01
2.817624779906830e-01 -3.594938907802664e-02 1.347177473455423e-01
3.129961302790933e-01 -6.018134808904806e-02 1.362826086675410e-01
2.566898125064712e-01 -1.099740735706566e-02 1.371279147622981e-01
2.269790522790224e-01 1.308697359028192e-02 1.356573668821144e-01
2.812085945232303e-01 1.666823666861411e-02 1.647234788868962e-01
3.130321640950239e-01 -7.482426059286732e-03 1.663233808453884e-01
2.248486721262121e-01 -3.726105350852488e-02 1.063985071503411e-01
1.959470774418540e-01 -1.324199800200028e-02 1.049830632145360e-01
2.505293297259806e-01 -1.171388268233084e-02 1.331527442797030e-01
2.817624779906830e-01 -3.594938907802664e-02 1.347177473455423e-01
2.269790522790224e-01 1.308697359028192e-02 1.356573668821144e-01
1.972781121804892e-01 3.717924703543457e-02 1.341870416410514e-01
2.493877561998947e-01 4.082340839718830e-02 1.631235394632123e-01
2.812085945232303e-01 1.666823666861411e-02 1.647234788868962e-01
3.129961302790933e-01 -6.018134808904806e-02 1.362826086675410e-01
2.817624779906830e-01 -3.594938907802664e-02 1.347177473455423e-01
3.394436492036563e-01 -3.276542620986254e-02 1.646194665043558e-01
3.714144842848556e-01 -5.696742032558561e-02 1.662289645606315e-01
3.130321640950239e-01 -7.482426059286732e-03 1.663233808453884e-01
2.812085945232303e-01 1.666823666861411e-02 1.647234788868962e-01
3.361949607688724e-01 2.033635565440978e-02 1.938429454289236e-01
3.685255101075131e-01 -3.862149156977970e-03 1.954763152062530e-01
2.817624779906830e-01 -3.594938907802664e-02 1.347177473455423e-01
2.505293297259806e-01 -1.171388268233084e-02 1.331527442797030e-01
3.074736035536384e-01 -8.562292718774827e-03 1.630099628059353e-01
3.394436492036563e-01 -3.276542620986254e-02 1.646194665043558e-01
2.812085945232303e-01 1.666823666861411e-02 1.647234788868962e-01
2.493877561998947e-01 4.082340839718830e-02 1.631235394632123e-01
3.038668018317574e-01 4.453612514672085e-02 1.922096688588209e-01
3.361949607688724e-01 2.033635565440978e-02 1.938429454289236e-01
0.000000000000000e+00 0.000000000000000e+00 0.000000000000000e+00
0.000000000000000e+00 0.000000000000000e+00 0.000000000000000e+00
6.033540512722065e-03 4.559904222617132e-04 4.106983034359703e-03
1.025097298574801e-02 -5.701317762194427e-03 4.186859889981800e-03
0.000000000000000e+00 0.000000000000000e+00 0.000000000000000e+00
0.000000000000000e+00 0.000000000000000e+00 0.000000000000000e+00
6.015092461039883e-03 1.038421783374524e-02 8.288865880264737e-03
1.028192841611872e-02 4.127402023988235e-03 8.365907261574747e-03
0.000000000000000e+00 0.000000000000000e+00 0.000000000000000e+00
0.000000000000000e+00 0.000000000000000e+00 0.000000000000000e+00
1.819172463901876e-03 6.608476301116575e-03 4.027450506568409e-03
6.033540512722065e-03 4.559904222617132e-04 4.106983034359703e-03
0.000000000000000e+00 0.000000000000000e+00 0.000000000000000e+00
0.000000000000000e+00 0.000000000000000e+00 0.000000000000000e+00
1.758389083192893e-03 1.662190482104917e-02 8.212333883899164e-03
6.015092461039883e-03 1.038421783374524e-02 8.288865880264737e-03
1.025097298574801e-02 -5.701317762194427e-03 4.186859889981800e-03
6.033540512722065e-03 4.559904222617132e-04 4.106983034359703e-03
2.255673556941812e-02 1.161086167111226e-03 1.481173857047904e-02
3.103559488884201e-02 -1.023079275388429e-02 1.503256651272885e-02
1.028192841611872e-02 4.127402023988235e-03 8.365907261574747e-03
6.015092461039883e-03 1.038421783374524e-02 8.288865880264737e-03
2.268066402383380e-02 2.022624282466291e-02 2.329011397781536e-02
3.125571426290653e-02 8.667472226609820e-03 2.351321015367999e-02
6.033540512722065e-03 4.559904222617132e-04 4.106983034359703e-03
1.819172463901876e-03 6.608476301116575e-03 4.027450506568409e-03
1.407989881473232e-02 1.256134337124554e-02 1.459099347348101e-02
2.255673556941812e-02 1.161086167111226e-03 1.481173857047904e-02
6.015092461039883e-03 1.038421783374524e-02 8.288865880264737e-03
1.758389083192893e-03 1.662190482104917e-02 8.212333883899164e-03
1.411336623275249e-02 3.178018087350627e-02 2.306743869709738e-02
2.268066402383380e-02 2.022624282466291e-02 2.329011397781536e-02
3.103559488884201e-02 -1.023079275388429e-02 1.503256651272885e-02
2.255673556941812e-02 1.161086167111226e-03 1.481173857047904e-02
4.855667751466284e-02 2.348172898521222e-03 3.123429861359978e-02
6.134484117852761e-02 -1.337343113450182e-02 3.166018302552016e-02
3.125571426290653e-02 8.667472226609820e-03 2.351321015367999e-02
2.268066402383380e-02 2.022624282466291e-02 2.329011397781536e-02
4.891118783243141e-02 2.968838778450859e-02 4.407285058587932e-02
6.184554034376492e-02 1.377563443940347e-02 4.450531852712589e-02
2.255673556941812e-02 1.161086167111226e-03 1.481173857047904e-02
1.407989881473232e-02 1.256134337124554e-02 1.459099347348101e-02
3.577066615230819e-02 1.807577085505074e-02 3.080842104826493e-02
4.855667751466284e-02 2.348172898521222e-03 3.123429861359978e-02
2.268066402383380e-02 2.022624282466291e-02 2.329011397781536e-02
1.411336623275249e-02 3.178018087350627e-02 2.306743869709738e-02
3.598491545433381e-02 4.559689959577987e-02 4.364081225497046e-02
4.891118783243141e-02 2.968838778450859e-02 4.407285058587932e-02
6.134484117852761e-02 -1.337343113450182e-02 3.166018302552016e-02
4.855667751466284e-02 2.348172898521222e-03 3.123429861359978e-02
8.301032800179971e-02 4.124829579112438e-03 5.247935275596872e-02
1.001225926587592e-01 -1.502090379983889e-02 5.315159292654816e-02
6.184554034376492e-02 1.377563443940347e-02 4.450531852712589e-02
4.891118783243141e-02 2.968838778450859e-02 4.407285058587932e-02
8.368732859966271e-02 3.887649683075387e-02 6.973088408381338e-02
1.009901264993357e-01 1.953730667646592e-02 7.041399706775514e-02
4.855667751466284e-02 2.348172898521222e-03 3.123429861359978e-02
3.577066615230819e-02 1.807577085505074e-02 3.080842104826493e-02
6.590004181435458e-02 2.327560508160456e-02 5.180707972450291e-02
8.301032800179971e-02 4.124829579112438e-03 5.247935275596872e-02
4.891118783243141e-02 2.968838778450859e-02 4.407285058587932e-02
3.598491545433381e-02 4.559689959577987e-02 4.364081225497046e-02
6.639265498315218e-02 5.821176489073777e-02 6.904826898881344e-02
8.368732859966271e-02 3.887649683075387e-02 6.973088408381338e-02
1.001225926587592e-01 -1.502090379983889e-02 5.315159292654816e-02
8.301032800179971e-02 4.124829579112438e-03 5.247935275596872e-02
1.248994500409099e-01 6.551874815117526e-03 7.763636128668952e-02
1.462949980024888e-01 -1.511906997163878e-02 7.857436806306259e-02
1.009901264993357e-01 1.953730667646592e-02 7.041399706775514e-02
8.368732859966271e-02 3.887649683075387e-02 6.973088408381338e-02
1.259877415554039e-01 4.781110589855930e-02 9.934680973803088e-02
1.476341485401759e-01 2.595779460953984e-02 1.003011546149242e-01
8.301032800179971e-02 4.124829579112438e-03 5.247935275596872e-02
6.590004181435458e-02 2.327560508160456e-02 5.180707972450291e-02
1.035055155294448e-01 2.822537265951575e-02 7.669836662598999e-02
1.248994500409099e-01 6.551874815117526e-03 7.763636128668952e-02
8.368732859966271e-02 3.887649683075387e-02 6.973088408381338e-02
6.639265498315218e-02 5.821176489073777e-02 6.904826898881344e-02
1.043479312301706e-01 6.966399183774152e-02 9.839276637292825e-02
1.259877415554039e-01 4.781110589855930e-02 9.934680973803088e-02
1.462949980024888e-01 -1.511906997163878e-02 7.857436806306259e-02
1.248994500409099e-01 6.551874815117526e-03 7.763636128668952e-02
1.731409069735158e-01 9.674301834668969e-03 1.057697920265863e-01
1.988692124702190e-01 -1.374070923435757e-02 1.069916042747798e-01
1.476341485401759e-01 2.595779460953984e-02 1.003011546149242e-01
1.259877415554039e-01 4.781110589855930e-02 9.934680973803088e-02
1.747499295231587e-01 5.640247336433848e-02 1.319777829799009e-01
2.006095281383546e-01 3.306674911128918e-02 1.331979846020474e-01
1.248994500409099e-01 6.551874815117526e-03 7.763636128668952e-02
1.035055155294448e-01 2.822537265951575e-02 7.669836662598999e-02
1.474191046736287e-01 3.309271000996794e-02 1.045482126336471e-01
1.731409069735158e-01 9.674301834668969e-03 1.057697920265863e-01
1.259877415554039e-01 4.781110589855930e-02 9.934680973803088e-02
1.043479312301706e-01 6.966399183774152e-02 9.839276637292825e-02
1.489063039918941e-01 7.972780900517602e-02 1.307589643369190e-01
1.747499295231587e-01 5.640247336433848e-02 1.319777829799009e-01
1.988692124702190e-01 -1.374070923435757e-02 1.069916042747798e-01
1.731409069735158e-01 9.674301834668969e-03 1.057697920265863e-01
2.269790522790224e-01 1.308697359028192e-02 1.356573668821144e-01
2.566898125064712e-01 -1.099740735706566e-02 1.371279147622981e-01
2.006095281383546e-01 3.306674911128918e-02 1.331979846020474e-01
1.747499295231587e-01 5.640247336433848e-02 1.319777829799009e-01
2.282913274268719e-01 6.496445613480775e-02 1.669205345936912e-01
2.601380616154216e-01 4.063222015109514e-02 1.685416403897900e-01
1.731409069735158e-01 9.674301834668969e-03 1.057697920265863e-01
1.474191046736287e-01 3.309271000996794e-02 1.045482126336471e-01
1.972781121804892e-01 3.717924703543457e-02 1.341870416410514e-01
2.269790522790224e-01 1.308697359028192e-02 1.356573668821144e-01
1.747499295231587e-01 5.640247336433848e-02 1.319777829799009e-01
1.489063039918941e-01 7.972780900517602e-02 1.307589643369190e-01
1.964580390248892e-01 8.930962835236902e-02 1.652996519914665e-01
2.282913274268719e-01 6.496445613480775e-02 1.669205345936912e-01
2.566898125064712e-01 -1.099740735706566e-02 1.371279147622981e-01
2.269790522790224e-01 1.308697359028192e-02 1.356573668821144e-01
2.812085945232303e-01 1.666823666861411e-02 1.647234788868962e-01
3.130321640950239e-01 -7.482426059286732e-03 1.663233808453884e-01
2.601380616154216e-01 4.063222015109514e-02 1.685416403897900e-01
2.282913274268719e-01 6.496445613480775e-02 1.669205345936912e-01
2.808711698017736e-01 6.998489974337178e-02 1.958138463149270e-01
3.143716644674239e-01 4.544304556292358e-02 1.975447975469491e-01
2.269790522790224e-01 1.308697359028192e-02 1.356573668821144e-01
1.972781121804892e-01 3.717924703543457e-02 1.341870416410514e-01
2.493877561998947e-01 4.082340839718830e-02 1.631235394632123e-01
2.812085945232303e-01 1.666823666861411e-02 1.647234788868962e-01
2.282913274268719e-01 6.496445613480775e-02 1.669205345936912e-01
1.964580390248892e-01 8.930962835236902e-02 1.652996519914665e-01
2.473698230770295e-01 9.453321471596474e-02 1.940825259457806e-01
2.808711698017736e-01 6.998489974337178e-02 1.958138463149270e-01
3.130321640950239e-01 -7.482426059286732e-03 1.663233808453884e-01
2.812085945232303e-01 1.666823666861411e-02 1.647234788868962e-01
3.361949607688724e-01 2.033635565440978e-02 1.938429454289236e-01
3.685255101075131e-01 -3.862149156977970e-03 1.954763152062530e-01
3.143716644674239e-01 4.544304556292358e-02 1.975447975469491e-01
2.808711698017736e-01 6.998489974337178e-02 1.958138463149270e-01
3.338477778552862e-01 7.392120013832010e-02 2.240116794597919e-01
3.674259180783382e-01 4.940583184010435e-02 2.257448970247217e-01
2.812085945232303e-01 1.666823666861411e-02 1.647234788868962e-01
2.493877561998947e-01 4.082340839718830e-02 1.631235394632123e-01
3.038668018317574e-01 4.453612514672085e-02 1.922096688588209e-01
3.361949607688724e-01 2.033635565440978e-02 1.938429454289236e-01
2.808711698017736e-01 6.998489974337178e-02 1.958138463149270e-01
2.473698230770295e-01 9.453321471596474e-02 1.940825259457806e-01
3.002721551070314e-01 9.843884989735706e-02 2.222785253854203e-01
3.338477778552862e-01 7.392120013832010e-02 2.240116794597919e-01
3.002721551070314e-01 9.843884989735706e-02 2.222785253854203e-01
3.338477778552862e-01 7.392120013832010e-02 2.240116794597919e-01
2.808711698017736e-01 6.998489974337178e-02 1.958138463149270e-01
2.473698230770295e-01 9.453321471596474e-02 1.940825259457806e-01
2.963458932812014e-01 1.542133123748021e-01 2.540643075606296e-01
3.317598222487705e-01 1.296598662842553e-01 2.559269113052828e-01
2.771968873539806e-01 1.257485151756311e-01 2.274669772257284e-01
2.418715345314820e-01 1.502376459509926e-01 2.256129862755069e-01
3.338477778552862e-01 7.392120013832010e-02 2.240116794597919e-01
3.674259180783382e-01 4.940583184010435e-02 2.257448970247217e-01
3.143716644674239e-01 4.544304556292358e-02 1.975447975469491e-01